 DBCSR| Multiplication driver                                               BLAS
 DBCSR| Multrec recursion limit                                              512
 DBCSR| Multiplication stack size                                           1000
 DBCSR| Maximum elements for images                                    UNLIMITED
 DBCSR| Multiplicative factor virtual images                                   1
 DBCSR| Multiplication size stacks                                             3
 DBCSR| Number of 3D layers                                               SINGLE
 DBCSR| Use MPI memory allocation                                              T
 DBCSR| Use RMA algorithm                                                      F
 DBCSR| Use Communication thread                                               T
 DBCSR| Communication thread load                                             87


  **** **** ******  **  PROGRAM STARTED AT               2018-10-11 12:50:17.366
 ***** ** ***  *** **   PROGRAM STARTED ON                                  g099
 **    ****   ******    PROGRAM STARTED BY                                ongari
 ***** **    ** ** **   PROGRAM PROCESS ID                                  1649
  **** **  *******  **  PROGRAM STARTED IN /scratch/ongari/proj44_studycases/CEL
                                           LOPT/3_GEO_OPT_bfgs

 CP2K| version string:                                          CP2K version 5.1
 CP2K| source code revision number:                                    svn:18091
 CP2K| cp2kflags: libint fftw3 pexsi parallel mpi3 scalapack libderiv_max_am1=5 
 CP2K|            libint_max_am=6
 CP2K| is freely available from                            https://www.cp2k.org/
 CP2K| Program compiled at                          Thu Jul 5 10:57:58 CEST 2018
 CP2K| Program compiled on                                                  g005
 CP2K| Program compiled for                  linux-rhel7-x86_S6g1_Mellanox-intel
 CP2K| Data directory path    /dev/shm/scitasbuild/spack-stage/spack-stage-Kdd_n
 CP2K| Input file name                                           cp2k_energy.inp
 
 GLOBAL| Force Environment number                                              1
 GLOBAL| Basis set file name            /scratch/ongari/0_LIBRARIES/0_cp2k/BASIS
 GLOBAL| Potential file name            /scratch/ongari/0_LIBRARIES/0_cp2k/GTH_P
 GLOBAL| MM Potential file name                                     MM_POTENTIAL
 GLOBAL| Coordinate file name                                      __STD_INPUT__
 GLOBAL| Method name                                                        CP2K
 GLOBAL| Project name                                                       cp2k
 GLOBAL| Preferred FFT library                                             FFTW3
 GLOBAL| Preferred diagonalization lib.                                       SL
 GLOBAL| Run type                                                        GEO_OPT
 GLOBAL| All-to-all communication in single precision                          F
 GLOBAL| FFTs using library dependent lengths                                  F
 GLOBAL| Global print level                                               MEDIUM
 GLOBAL| Total number of message passing processes                            49
 GLOBAL| Number of threads for this process                                    1
 GLOBAL| This output is from process                                           0
 GLOBAL| CPU model name :  Intel(R) Xeon(R) Gold 6132 CPU @ 2.60GHz

 MEMORY| system memory details [Kb]
 MEMORY|                        rank 0           min           max       average
 MEMORY| MemTotal            197738988     197738988     197738988     197738988
 MEMORY| MemFree             180749492     180749492     181638872     181130791
 MEMORY| Buffers                  3800          2472          3800          3230
 MEMORY| Cached                 240628        196916        240628        221894
 MEMORY| Slab                   745344        261156        745344        537834
 MEMORY| SReclaimable           282368         78416        282368        194960
 MEMORY| MemLikelyFree       181276288     181276288     181916676     181550876


 *** Fundamental physical constants (SI units) ***

 *** Literature: B. J. Mohr and B. N. Taylor,
 ***             CODATA recommended values of the fundamental physical
 ***             constants: 2006, Web Version 5.1
 ***             http://physics.nist.gov/constants

 Speed of light in vacuum [m/s]                             2.99792458000000E+08
 Magnetic constant or permeability of vacuum [N/A**2]       1.25663706143592E-06
 Electric constant or permittivity of vacuum [F/m]          8.85418781762039E-12
 Planck constant (h) [J*s]                                  6.62606896000000E-34
 Planck constant (h-bar) [J*s]                              1.05457162825177E-34
 Elementary charge [C]                                      1.60217648700000E-19
 Electron mass [kg]                                         9.10938215000000E-31
 Electron g factor [ ]                                     -2.00231930436220E+00
 Proton mass [kg]                                           1.67262163700000E-27
 Fine-structure constant                                    7.29735253760000E-03
 Rydberg constant [1/m]                                     1.09737315685270E+07
 Avogadro constant [1/mol]                                  6.02214179000000E+23
 Boltzmann constant [J/K]                                   1.38065040000000E-23
 Atomic mass unit [kg]                                      1.66053878200000E-27
 Bohr radius [m]                                            5.29177208590000E-11

 *** Conversion factors ***

 [u] -> [a.u.]                                              1.82288848426455E+03
 [Angstrom] -> [Bohr] = [a.u.]                              1.88972613288564E+00
 [a.u.] = [Bohr] -> [Angstrom]                              5.29177208590000E-01
 [a.u.] -> [s]                                              2.41888432650478E-17
 [a.u.] -> [fs]                                             2.41888432650478E-02
 [a.u.] -> [J]                                              4.35974393937059E-18
 [a.u.] -> [N]                                              8.23872205491840E-08
 [a.u.] -> [K]                                              3.15774647902944E+05
 [a.u.] -> [kJ/mol]                                         2.62549961709828E+03
 [a.u.] -> [kcal/mol]                                       6.27509468713739E+02
 [a.u.] -> [Pa]                                             2.94210107994716E+13
 [a.u.] -> [bar]                                            2.94210107994716E+08
 [a.u.] -> [atm]                                            2.90362800883016E+08
 [a.u.] -> [eV]                                             2.72113838565563E+01
 [a.u.] -> [Hz]                                             6.57968392072181E+15
 [a.u.] -> [1/cm] (wave numbers)                            2.19474631370540E+05
 [a.u./Bohr**2] -> [1/cm]                                   5.14048714338585E+03
 

 CELL_TOP| Volume [angstrom^3]:                                         9656.654
 CELL_TOP| Vector a [angstrom    29.287     0.000     0.000    |a| =      29.287
 CELL_TOP| Vector b [angstrom   -14.644    25.363     0.000    |b| =      29.287
 CELL_TOP| Vector c [angstrom     0.000     0.000    13.000    |c| =      13.000
 CELL_TOP| Angle (b,c), alpha [degree]:                                   90.000
 CELL_TOP| Angle (a,c), beta  [degree]:                                   90.000
 CELL_TOP| Angle (a,b), gamma [degree]:                                  120.000
 CELL_TOP| Numerically orthorhombic:                                          NO
 
 GENERATE|  Preliminary Number of Bonds generated:                             0
 GENERATE|  Achieved consistency in connectivity generation.

 CELL| Volume [angstrom^3]:                                             9656.654
 CELL| Vector a [angstrom]:      29.287     0.000     0.000    |a| =      29.287
 CELL| Vector b [angstrom]:     -14.644    25.363     0.000    |b| =      29.287
 CELL| Vector c [angstrom]:       0.000     0.000    13.000    |c| =      13.000
 CELL| Angle (b,c), alpha [degree]:                                       90.000
 CELL| Angle (a,c), beta  [degree]:                                       90.000
 CELL| Angle (a,b), gamma [degree]:                                      120.000
 CELL| Numerically orthorhombic:                                              NO

 CELL_REF| Volume [angstrom^3]:                                         9656.654
 CELL_REF| Vector a [angstrom    29.287     0.000     0.000    |a| =      29.287
 CELL_REF| Vector b [angstrom   -14.644    25.363     0.000    |b| =      29.287
 CELL_REF| Vector c [angstrom     0.000     0.000    13.000    |c| =      13.000
 CELL_REF| Angle (b,c), alpha [degree]:                                   90.000
 CELL_REF| Angle (a,c), beta  [degree]:                                   90.000
 CELL_REF| Angle (a,b), gamma [degree]:                                  120.000
 CELL_REF| Numerically orthorhombic:                                          NO

 *******************************************************************************
 *******************************************************************************
 **                                                                           **
 **     #####                         ##              ##                      **
 **    ##   ##            ##          ##              ##                      **
 **   ##     ##                       ##            ######                    **
 **   ##     ##  ##   ##  ##   #####  ##  ##   ####   ##    #####    #####    **
 **   ##     ##  ##   ##  ##  ##      ## ##   ##      ##   ##   ##  ##   ##   **
 **   ##  ## ##  ##   ##  ##  ##      ####     ###    ##   ######   ######    **
 **    ##  ###   ##   ##  ##  ##      ## ##      ##   ##   ##       ##        **
 **     #######   #####   ##   #####  ##  ##  ####    ##    #####   ##        **
 **           ##                                                    ##        **
 **                                                                           **
 **                                                ... make the atoms dance   **
 **                                                                           **
 **            Copyright (C) by CP2K developers group (2000 - 2017)           **
 **                                                                           **
 *******************************************************************************

 DFT| Spin restricted Kohn-Sham (RKS) calculation                            RKS
 DFT| Multiplicity                                                             1
 DFT| Number of spin states                                                    1
 DFT| Charge                                                                   0
 DFT| Self-interaction correction (SIC)                                       NO
 DFT| Cutoffs: density                                              1.000000E-10
 DFT|          gradient                                             1.000000E-10
 DFT|          tau                                                  1.000000E-10
 DFT|          cutoff_smoothing_range                               0.000000E+00
 DFT| XC density smoothing                                                  NONE
 DFT| XC derivatives                                                          PW
 FUNCTIONAL| ROUTINE=NEW
 FUNCTIONAL| PBE:
 FUNCTIONAL| J.P.Perdew, K.Burke, M.Ernzerhof, Phys. Rev. Letter, vol. 77, n 18,
 FUNCTIONAL|  pp. 3865-3868, (1996){spin unpolarized}                           
 vdW POTENTIAL|                                                   Pair Potential
 vdW POTENTIAL|          DFT-D3 (Version 3.1)
 vdW POTENTIAL|          Potential Form: S. Grimme et al, JCP 132: 154104 (2010)
 vdW POTENTIAL|          BJ Damping: S. Grimme et al, JCC 32: 1456 (2011)
 vdW POTENTIAL|          Cutoff Radius [Bohr]:                             20.00
 vdW POTENTIAL|          s6 Scaling Factor:                               1.0000
 vdW POTENTIAL|          a1 Damping Factor:                               0.4289
 vdW POTENTIAL|          s8 Scaling Factor:                               0.7875
 vdW POTENTIAL|          a2 Damping Factor:                               4.4407
 vdW POTENTIAL|          Cutoff for CN calculation:                   0.1000E-05

 QS| Method:                                                                 GPW
 QS| Density plane wave grid type                        NON-SPHERICAL FULLSPACE
 QS| Number of grid levels:                                                    4
 QS| Density cutoff [a.u.]:                                                300.0
 QS| Multi grid cutoff [a.u.]: 1) grid level                               300.0
 QS|                           2) grid level                               100.0
 QS|                           3) grid level                                33.3
 QS|                           4) grid level                                11.1
 QS| Grid level progression factor:                                          3.0
 QS| Relative density cutoff [a.u.]:                                        25.0
 QS| Consistent realspace mapping and integration 
 QS| Interaction thresholds: eps_pgf_orb:                                1.0E-05
 QS|                         eps_filter_matrix:                          0.0E+00
 QS|                         eps_core_charge:                            1.0E-12
 QS|                         eps_rho_gspace:                             1.0E-10
 QS|                         eps_rho_rspace:                             1.0E-10
 QS|                         eps_gvg_rspace:                             1.0E-05
 QS|                         eps_ppl:                                    1.0E-02
 QS|                         eps_ppnl:                                   1.0E-07


 ATOMIC KIND INFORMATION

  1. Atomic kind: O                                     Number of atoms:      24

     Orbital Basis Set                                        DZVP-MOLOPT-SR-GTH

       Number of orbital shell sets:                                           1
       Number of orbital shells:                                               5
       Number of primitive Cartesian functions:                                5
       Number of Cartesian basis functions:                                   14
       Number of spherical basis functions:                                   13
       Norm type:                                                              2

       Normalised Cartesian orbitals:

                        Set   Shell   Orbital            Exponent    Coefficient

                          1       1    2s               10.389228       0.396646
                                                         3.849621       0.208811
                                                         1.388401      -0.301641
                                                         0.496955      -0.274061
                                                         0.162492      -0.033677

                          1       2    3s               10.389228       0.303673
                                                         3.849621       0.240943
                                                         1.388401      -0.313066
                                                         0.496955      -0.043055
                                                         0.162492       0.213991

                          1       3    3px              10.389228      -1.530415
                                                         3.849621      -1.371928
                                                         1.388401      -0.761951
                                                         0.496955      -0.253695
                                                         0.162492      -0.035541
                          1       3    3py              10.389228      -1.530415
                                                         3.849621      -1.371928
                                                         1.388401      -0.761951
                                                         0.496955      -0.253695
                                                         0.162492      -0.035541
                          1       3    3pz              10.389228      -1.530415
                                                         3.849621      -1.371928
                                                         1.388401      -0.761951
                                                         0.496955      -0.253695
                                                         0.162492      -0.035541

                          1       4    4px              10.389228      -0.565392
                                                         3.849621      -0.038231
                                                         1.388401      -0.382373
                                                         0.496955       0.179070
                                                         0.162492       0.122714
                          1       4    4py              10.389228      -0.565392
                                                         3.849621      -0.038231
                                                         1.388401      -0.382373
                                                         0.496955       0.179070
                                                         0.162492       0.122714
                          1       4    4pz              10.389228      -0.565392
                                                         3.849621      -0.038231
                                                         1.388401      -0.382373
                                                         0.496955       0.179070
                                                         0.162492       0.122714

                          1       5    4dx2             10.389228       1.867377
                                                         3.849621       0.670994
                                                         1.388401       1.353441
                                                         0.496955       0.273538
                                                         0.162492       0.006620
                          1       5    4dxy             10.389228       3.234392
                                                         3.849621       1.162195
                                                         1.388401       2.344229
                                                         0.496955       0.473781
                                                         0.162492       0.011466
                          1       5    4dxz             10.389228       3.234392
                                                         3.849621       1.162195
                                                         1.388401       2.344229
                                                         0.496955       0.473781
                                                         0.162492       0.011466
                          1       5    4dy2             10.389228       1.867377
                                                         3.849621       0.670994
                                                         1.388401       1.353441
                                                         0.496955       0.273538
                                                         0.162492       0.006620
                          1       5    4dyz             10.389228       3.234392
                                                         3.849621       1.162195
                                                         1.388401       2.344229
                                                         0.496955       0.473781
                                                         0.162492       0.011466
                          1       5    4dz2             10.389228       1.867377
                                                         3.849621       0.670994
                                                         1.388401       1.353441
                                                         0.496955       0.273538
                                                         0.162492       0.006620

     GTH Potential information for                                       GTH-PBE

       Description:                       Goedecker-Teter-Hutter pseudopotential
                                           Goedecker et al., PRB 54, 1703 (1996)
                                          Hartwigsen et al., PRB 58, 3641 (1998)
                                                      Krack, TCA 114, 145 (2005)

       Gaussian exponent of the core charge distribution:               8.360253
       Electronic configuration (s p d ...):                               2   4

       Parameters of the local part of the GTH pseudopotential:

                          rloc        C1          C2          C3          C4
                        0.244554  -16.667215    2.487311

       Parameters of the non-local part of the GTH pseudopotential:

                   l      r(l)      h(i,j,l)

                   0    0.220956   18.337458
                   1    0.211332

  2. Atomic kind: N                                     Number of atoms:      24

     Orbital Basis Set                                        DZVP-MOLOPT-SR-GTH

       Number of orbital shell sets:                                           1
       Number of orbital shells:                                               5
       Number of primitive Cartesian functions:                                5
       Number of Cartesian basis functions:                                   14
       Number of spherical basis functions:                                   13
       Norm type:                                                              2

       Normalised Cartesian orbitals:

                        Set   Shell   Orbital            Exponent    Coefficient

                          1       1    2s                7.341988       0.360561
                                                         2.542637       0.139177
                                                         0.888575      -0.289383
                                                         0.333802      -0.182244
                                                         0.112012      -0.019197

                          1       2    3s                7.341988       0.282000
                                                         2.542637       0.177875
                                                         0.888575      -0.278381
                                                         0.333802       0.008577
                                                         0.112012       0.154176

                          1       3    3px               7.341988      -1.188719
                                                         2.542637      -0.973969
                                                         0.888575      -0.501079
                                                         0.333802      -0.144894
                                                         0.112012      -0.013986
                          1       3    3py               7.341988      -1.188719
                                                         2.542637      -0.973969
                                                         0.888575      -0.501079
                                                         0.333802      -0.144894
                                                         0.112012      -0.013986
                          1       3    3pz               7.341988      -1.188719
                                                         2.542637      -0.973969
                                                         0.888575      -0.501079
                                                         0.333802      -0.144894
                                                         0.112012      -0.013986

                          1       4    4px               7.341988      -0.094798
                                                         2.542637       0.050069
                                                         0.888575      -0.114797
                                                         0.333802       0.144793
                                                         0.112012       0.066710
                          1       4    4py               7.341988      -0.094798
                                                         2.542637       0.050069
                                                         0.888575      -0.114797
                                                         0.333802       0.144793
                                                         0.112012       0.066710
                          1       4    4pz               7.341988      -0.094798
                                                         2.542637       0.050069
                                                         0.888575      -0.114797
                                                         0.333802       0.144793
                                                         0.112012       0.066710

                          1       5    4dx2              7.341988       1.354688
                                                         2.542637       0.690378
                                                         0.888575       0.855359
                                                         0.333802       0.091746
                                                         0.112012       0.001253
                          1       5    4dxy              7.341988       2.346389
                                                         2.542637       1.195770
                                                         0.888575       1.481524
                                                         0.333802       0.158910
                                                         0.112012       0.002169
                          1       5    4dxz              7.341988       2.346389
                                                         2.542637       1.195770
                                                         0.888575       1.481524
                                                         0.333802       0.158910
                                                         0.112012       0.002169
                          1       5    4dy2              7.341988       1.354688
                                                         2.542637       0.690378
                                                         0.888575       0.855359
                                                         0.333802       0.091746
                                                         0.112012       0.001253
                          1       5    4dyz              7.341988       2.346389
                                                         2.542637       1.195770
                                                         0.888575       1.481524
                                                         0.333802       0.158910
                                                         0.112012       0.002169
                          1       5    4dz2              7.341988       1.354688
                                                         2.542637       0.690378
                                                         0.888575       0.855359
                                                         0.333802       0.091746
                                                         0.112012       0.001253

     GTH Potential information for                                       GTH-PBE

       Description:                       Goedecker-Teter-Hutter pseudopotential
                                           Goedecker et al., PRB 54, 1703 (1996)
                                          Hartwigsen et al., PRB 58, 3641 (1998)
                                                      Krack, TCA 114, 145 (2005)

       Gaussian exponent of the core charge distribution:               6.208322
       Electronic configuration (s p d ...):                               2   3

       Parameters of the local part of the GTH pseudopotential:

                          rloc        C1          C2          C3          C4
                        0.283791  -12.415226    1.868096

       Parameters of the non-local part of the GTH pseudopotential:

                   l      r(l)      h(i,j,l)

                   0    0.255405   13.630263
                   1    0.245495

  3. Atomic kind: C                                     Number of atoms:     216

     Orbital Basis Set                                        DZVP-MOLOPT-SR-GTH

       Number of orbital shell sets:                                           1
       Number of orbital shells:                                               5
       Number of primitive Cartesian functions:                                5
       Number of Cartesian basis functions:                                   14
       Number of spherical basis functions:                                   13
       Norm type:                                                              2

       Normalised Cartesian orbitals:

                        Set   Shell   Orbital            Exponent    Coefficient

                          1       1    2s                5.605331       0.322515
                                                         2.113016       0.213043
                                                         0.769911      -0.209686
                                                         0.348157      -0.219794
                                                         0.128212      -0.022789

                          1       2    3s                5.605331       0.552234
                                                         2.113016       0.082072
                                                         0.769911       0.007843
                                                         0.348157       0.136893
                                                         0.128212       0.074283

                          1       3    3px               5.605331      -0.703879
                                                         2.113016      -0.642521
                                                         0.769911      -0.374851
                                                         0.348157      -0.139743
                                                         0.128212      -0.027849
                          1       3    3py               5.605331      -0.703879
                                                         2.113016      -0.642521
                                                         0.769911      -0.374851
                                                         0.348157      -0.139743
                                                         0.128212      -0.027849
                          1       3    3pz               5.605331      -0.703879
                                                         2.113016      -0.642521
                                                         0.769911      -0.374851
                                                         0.348157      -0.139743
                                                         0.128212      -0.027849

                          1       4    4px               5.605331      -0.480376
                                                         2.113016      -0.552894
                                                         0.769911      -0.316145
                                                         0.348157       0.210505
                                                         0.128212       0.076095
                          1       4    4py               5.605331      -0.480376
                                                         2.113016      -0.552894
                                                         0.769911      -0.316145
                                                         0.348157       0.210505
                                                         0.128212       0.076095
                          1       4    4pz               5.605331      -0.480376
                                                         2.113016      -0.552894
                                                         0.769911      -0.316145
                                                         0.348157       0.210505
                                                         0.128212       0.076095

                          1       5    4dx2              5.605331       0.640026
                                                         2.113016       0.274300
                                                         0.769911       0.446711
                                                         0.348157       0.028674
                                                         0.128212       0.029790
                          1       5    4dxy              5.605331       1.108557
                                                         2.113016       0.475102
                                                         0.769911       0.773726
                                                         0.348157       0.049666
                                                         0.128212       0.051599
                          1       5    4dxz              5.605331       1.108557
                                                         2.113016       0.475102
                                                         0.769911       0.773726
                                                         0.348157       0.049666
                                                         0.128212       0.051599
                          1       5    4dy2              5.605331       0.640026
                                                         2.113016       0.274300
                                                         0.769911       0.446711
                                                         0.348157       0.028674
                                                         0.128212       0.029790
                          1       5    4dyz              5.605331       1.108557
                                                         2.113016       0.475102
                                                         0.769911       0.773726
                                                         0.348157       0.049666
                                                         0.128212       0.051599
                          1       5    4dz2              5.605331       0.640026
                                                         2.113016       0.274300
                                                         0.769911       0.446711
                                                         0.348157       0.028674
                                                         0.128212       0.029790

     GTH Potential information for                                       GTH-PBE

       Description:                       Goedecker-Teter-Hutter pseudopotential
                                           Goedecker et al., PRB 54, 1703 (1996)
                                          Hartwigsen et al., PRB 58, 3641 (1998)
                                                      Krack, TCA 114, 145 (2005)

       Gaussian exponent of the core charge distribution:               4.364419
       Electronic configuration (s p d ...):                               2   2

       Parameters of the local part of the GTH pseudopotential:

                          rloc        C1          C2          C3          C4
                        0.338471   -8.803674    1.339211

       Parameters of the non-local part of the GTH pseudopotential:

                   l      r(l)      h(i,j,l)

                   0    0.302576    9.622487
                   1    0.291507

  4. Atomic kind: H                                     Number of atoms:     144

     Orbital Basis Set                                        DZVP-MOLOPT-SR-GTH

       Number of orbital shell sets:                                           1
       Number of orbital shells:                                               3
       Number of primitive Cartesian functions:                                5
       Number of Cartesian basis functions:                                    5
       Number of spherical basis functions:                                    5
       Norm type:                                                              2

       Normalised Cartesian orbitals:

                        Set   Shell   Orbital            Exponent    Coefficient

                          1       1    2s               10.068468      -0.133023
                                                         2.680223      -0.177618
                                                         0.791502      -0.258419
                                                         0.239116      -0.107525
                                                         0.082193      -0.014019

                          1       2    3s               10.068468       0.344673
                                                         2.680223       1.819821
                                                         0.791502      -0.999069
                                                         0.239116       0.017430
                                                         0.082193       0.082660

                          1       3    3px              10.068468       0.155326
                                                         2.680223       0.367157
                                                         0.791502       0.311480
                                                         0.239116       0.080105
                                                         0.082193       0.033440
                          1       3    3py              10.068468       0.155326
                                                         2.680223       0.367157
                                                         0.791502       0.311480
                                                         0.239116       0.080105
                                                         0.082193       0.033440
                          1       3    3pz              10.068468       0.155326
                                                         2.680223       0.367157
                                                         0.791502       0.311480
                                                         0.239116       0.080105
                                                         0.082193       0.033440

     GTH Potential information for                                       GTH-PBE

       Description:                       Goedecker-Teter-Hutter pseudopotential
                                           Goedecker et al., PRB 54, 1703 (1996)
                                          Hartwigsen et al., PRB 58, 3641 (1998)
                                                      Krack, TCA 114, 145 (2005)

       Gaussian exponent of the core charge distribution:              12.500000
       Electronic configuration (s p d ...):                                   1

       Parameters of the local part of the GTH pseudopotential:

                          rloc        C1          C2          C3          C4
                        0.200000   -4.178900    0.724463


 MOLECULE KIND INFORMATION


 All atoms are their own molecule, skipping detailed information


 TOTAL NUMBERS AND MAXIMUM NUMBERS

  Total number of            - Atomic kinds:                                   4
                             - Atoms:                                        408
                             - Shell sets:                                   408
                             - Shells:                                      1752
                             - Primitive Cartesian functions:               2040
                             - Cartesian basis functions:                   4416
                             - Spherical basis functions:                   4152

  Maximum angular momentum of- Orbital basis functions:                        2
                             - Local part of the GTH pseudopotential:          2
                             - Non-local part of the GTH pseudopotential:      0


 MODULE QUICKSTEP:  ATOMIC COORDINATES IN angstrom

  Atom  Kind  Element       X           Y           Z          Z(eff)       Mass

       1     1 O    8    0.529000   14.183690   -0.061370      6.00      15.9994
       2     2 N    7    2.970770   14.730140   -0.028870      5.00      14.0067
       3     3 C    6    0.317380   15.424440   -0.092080      4.00      12.0107
       4     3 C    6    2.676810   15.991570    0.114990      4.00      12.0107
       5     3 C    6    4.233360   14.183280    0.027550      4.00      12.0107
       6     3 C    6    5.419820   14.996180    0.089750      4.00      12.0107
       7     3 C    6    6.588000   14.284220    0.087900      4.00      12.0107
       8     3 C    6    6.678020   12.867720    0.030670      4.00      12.0107
       9     3 C    6    5.460280   12.098260   -0.062110      4.00      12.0107
      10     3 C    6    4.241980   12.754770   -0.061400      4.00      12.0107
      11     3 C    6    1.381830   16.401800   -0.072400      4.00      12.0107
      12     4 H    1    3.394490   16.790350    0.310110      1.00       1.0079
      13     4 H    1    5.470870   16.073900    0.244450      1.00       1.0079
      14     4 H    1    2.152770   14.102510   -0.294320      1.00       1.0079
      15     4 H    1    3.346830   12.198900   -0.139480      1.00       1.0079
      16     4 H    1    7.517540   14.903550    0.107630      1.00       1.0079
      17     4 H    1    5.508080   10.988720   -0.273180      1.00       1.0079
      18     1 O    8    2.167850   18.705620    0.070690      6.00      15.9994
      19     2 N    7    0.501860   20.544270    0.044170      5.00      14.0067
      20     3 C    6    1.189220   17.834680   -0.000490      4.00      12.0107
      21     3 C    6   -0.503550   19.686570    0.215670      4.00      12.0107
      22     3 C    6    0.332580   21.932300   -0.034600      4.00      12.0107
      23     3 C    6   -0.969300   22.428560   -0.080950      4.00      12.0107
      24     3 C    6   -1.084680   23.759670    0.050690      4.00      12.0107
      25     3 C    6    0.071000   24.616840    0.003530      4.00      12.0107
      26     3 C    6    1.334400   24.036110    0.031160      4.00      12.0107
      27     3 C    6    1.524270   22.650500    0.107820      4.00      12.0107
      28     3 C    6   -0.180360   18.298960    0.072170      4.00      12.0107
      29     4 H    1   -1.559970   20.006290    0.480950      1.00       1.0079
      30     4 H    1   -1.882420   21.795440   -0.111510      1.00       1.0079
      31     4 H    1    1.446830   19.976450   -0.134250      1.00       1.0079
      32     4 H    1    2.469010   22.209710    0.191590      1.00       1.0079
      33     4 H    1   -2.012790   24.235780    0.052100      1.00       1.0079
      34     4 H    1    2.148640   24.684450    0.225800      1.00       1.0079
      35     1 O    8   -2.512150   17.993820   -0.100310      6.00      15.9994
      36     2 N    7   -3.470110   15.567080    0.031360      5.00      14.0067
      37     3 C    6   -1.384130   17.451390   -0.031530      4.00      12.0107
      38     3 C    6   -2.161420   15.104250   -0.022110      4.00      12.0107
      39     3 C    6   -4.571840   14.696520   -0.009510      4.00      12.0107
      40     3 C    6   -4.356520   13.286810   -0.148090      4.00      12.0107
      41     3 C    6   -5.445730   12.476510   -0.168460      4.00      12.0107
      42     3 C    6   -6.738920   13.036770   -0.155390      4.00      12.0107
      43     3 C    6   -6.916750   14.429660   -0.077340      4.00      12.0107
      44     3 C    6   -5.832200   15.286440   -0.026320      4.00      12.0107
      45     3 C    6   -1.072930   15.949730   -0.051370      4.00      12.0107
      46     4 H    1   -2.037350   14.013870    0.099980      1.00       1.0079
      47     4 H    1   -3.357440   12.852580   -0.051600      1.00       1.0079
      48     4 H    1   -3.403930   16.700990   -0.000320      1.00       1.0079
      49     4 H    1   -5.887930   16.360890    0.016960      1.00       1.0079
      50     4 H    1   -5.367260   11.428480   -0.412260      1.00       1.0079
      51     4 H    1   -7.887880   14.834190   -0.119370      1.00       1.0079
      52     1 O    8   14.341970   11.166240    0.119870      6.00      15.9994
      53     2 N    7   11.836500   10.746320    0.012460      5.00      14.0067
      54     3 C    6   14.457350    9.892870    0.056570      4.00      12.0107
      55     3 C    6   12.071000    9.451110   -0.125430      4.00      12.0107
      56     3 C    6   10.556680   11.235420   -0.037370      4.00      12.0107
      57     3 C    6    9.432610   10.389360    0.010470      4.00      12.0107
      58     3 C    6    8.209740   10.913960    0.193300      4.00      12.0107
      59     3 C    6    8.027700   12.335690    0.073160      4.00      12.0107
      60     3 C    6    9.142720   13.184130    0.133820      4.00      12.0107
      61     3 C    6   10.402000   12.659690    0.140520      4.00      12.0107
      62     3 C    6   13.379380    8.967720    0.048190      4.00      12.0107
      63     4 H    1   11.311480    8.740620   -0.385880      1.00       1.0079
      64     4 H    1    9.508010    9.302220   -0.001610      1.00       1.0079
      65     4 H    1   12.763040   11.254580    0.309080      1.00       1.0079
      66     4 H    1   11.288560   13.239120    0.251980      1.00       1.0079
      67     4 H    1    7.360370   10.255720    0.346080      1.00       1.0079
      68     4 H    1    9.008520   14.262480    0.070700      1.00       1.0079
      69     1 O    8   12.550390    6.711410    0.071050      6.00      15.9994
      70     2 N    7   14.153750    4.830320   -0.286580      5.00      14.0067
      71     3 C    6   13.542240    7.538100    0.025760      4.00      12.0107
      72     3 C    6   15.215670    5.670630   -0.185050      4.00      12.0107
      73     3 C    6   14.231980    3.424620   -0.128350      4.00      12.0107
      74     3 C    6   15.499060    2.875810    0.063900      4.00      12.0107
      75     3 C    6   15.623740    1.502580   -0.010680      4.00      12.0107
      76     3 C    6   14.502380    0.687290   -0.015800      4.00      12.0107
      77     3 C    6   13.197390    1.231460    0.037720      4.00      12.0107
      78     3 C    6   13.064680    2.640880   -0.080110      4.00      12.0107
      79     3 C    6   14.966610    7.064670   -0.007790      4.00      12.0107
      80     4 H    1   16.207540    5.249910   -0.148290      1.00       1.0079
      81     4 H    1   16.440470    3.388900    0.026330      1.00       1.0079
      82     4 H    1   13.235850    5.297050   -0.164520      1.00       1.0079
      83     4 H    1   12.115440    3.085710   -0.237250      1.00       1.0079
      84     4 H    1   16.588230    1.072130   -0.041870      1.00       1.0079
      85     4 H    1   12.354940    0.576720    0.248430      1.00       1.0079
      86     1 O    8   17.287110    7.461900    0.135890      6.00      15.9994
      87     2 N    7   18.016890    9.918080   -0.034700      5.00      14.0067
      88     3 C    6   16.131470    7.969830    0.037490      4.00      12.0107
      89     3 C    6   16.777100   10.326260   -0.203820      4.00      12.0107
      90     3 C    6   19.142270   10.734520   -0.024900      4.00      12.0107
      91     3 C    6   18.940310   12.116030   -0.165660      4.00      12.0107
      92     3 C    6   20.100930   12.887500   -0.143680      4.00      12.0107
      93     3 C    6   21.326860   12.215080   -0.177800      4.00      12.0107
      94     3 C    6   21.478470   10.827340   -0.140960      4.00      12.0107
      95     3 C    6   20.354830   10.071750    0.096980      4.00      12.0107
      96     3 C    6   15.781610    9.366230   -0.024960      4.00      12.0107
      97     4 H    1   16.410710   11.341910   -0.338260      1.00       1.0079
      98     4 H    1   17.949330   12.511860   -0.191160      1.00       1.0079
      99     4 H    1   18.055760    8.846660    0.140840      1.00       1.0079
     100     4 H    1   20.368830    8.999470    0.321760      1.00       1.0079
     101     4 H    1   20.035240   13.938200   -0.070760      1.00       1.0079
     102     4 H    1   22.473030   10.342180   -0.191990      1.00       1.0079
     103     1 O    8    0.437220   14.098850    3.169810      6.00      15.9994
     104     2 N    7    2.912620   14.590560    3.235720      5.00      14.0067
     105     3 C    6    0.246160   15.406790    3.208030      4.00      12.0107
     106     3 C    6    2.677250   15.912060    3.488070      4.00      12.0107
     107     3 C    6    4.174990   14.068400    3.364350      4.00      12.0107
     108     3 C    6    5.296820   14.932020    3.187080      4.00      12.0107
     109     3 C    6    6.543110   14.385770    3.356220      4.00      12.0107
     110     3 C    6    6.751610   13.012520    3.375930      4.00      12.0107
     111     3 C    6    5.655160   12.161150    3.156610      4.00      12.0107
     112     3 C    6    4.378200   12.673850    3.319690      4.00      12.0107
     113     3 C    6    1.340200   16.326390    3.257190      4.00      12.0107
     114     4 H    1    3.496590   16.534460    3.871660      1.00       1.0079
     115     4 H    1    5.304460   16.019440    3.011870      1.00       1.0079
     116     4 H    1    1.960340   14.053270    3.176640      1.00       1.0079
     117     4 H    1    3.501510   11.997390    3.245010      1.00       1.0079
     118     4 H    1    7.387540   15.080250    3.249120      1.00       1.0079
     119     4 H    1    5.850570   11.153310    2.969350      1.00       1.0079
     120     1 O    8    2.243970   18.504640    3.268760      6.00      15.9994
     121     2 N    7    0.569220   20.493690    3.240040      5.00      14.0067
     122     3 C    6    1.172600   17.776980    3.303980      4.00      12.0107
     123     3 C    6   -0.467130   19.660790    3.281020      4.00      12.0107
     124     3 C    6    0.415200   21.862730    3.124880      4.00      12.0107
     125     3 C    6   -0.886900   22.427710    3.188180      4.00      12.0107
     126     3 C    6   -1.047230   23.796280    3.254170      4.00      12.0107
     127     3 C    6    0.110590   24.620390    3.224190      4.00      12.0107
     128     3 C    6    1.412000   24.035020    3.240380      4.00      12.0107
     129     3 C    6    1.524200   22.643640    3.192440      4.00      12.0107
     130     3 C    6   -0.177750   18.319510    3.319450      4.00      12.0107
     131     4 H    1   -1.555040   19.945320    3.206920      1.00       1.0079
     132     4 H    1   -1.736540   21.776960    3.243230      1.00       1.0079
     133     4 H    1    1.547540   20.011130    3.415080      1.00       1.0079
     134     4 H    1    2.471450   22.194360    3.200590      1.00       1.0079
     135     4 H    1   -2.019790   24.218160    3.495960      1.00       1.0079
     136     4 H    1    2.289950   24.610560    3.300330      1.00       1.0079
     137     1 O    8   -2.533080   17.971740    3.241170      6.00      15.9994
     138     2 N    7   -3.372860   15.614060    3.337730      5.00      14.0067
     139     3 C    6   -1.337090   17.451310    3.294220      4.00      12.0107
     140     3 C    6   -2.130690   15.110990    3.284810      4.00      12.0107
     141     3 C    6   -4.490230   14.820420    3.314700      4.00      12.0107
     142     3 C    6   -4.292730   13.421630    3.353280      4.00      12.0107
     143     3 C    6   -5.368780   12.592960    3.213270      4.00      12.0107
     144     3 C    6   -6.690740   13.138810    3.193440      4.00      12.0107
     145     3 C    6   -6.810790   14.494580    3.104180      4.00      12.0107
     146     3 C    6   -5.752870   15.336330    3.132460      4.00      12.0107
     147     3 C    6   -1.116680   15.996720    3.298980      4.00      12.0107
     148     4 H    1   -1.849270   14.045110    3.357170      1.00       1.0079
     149     4 H    1   -3.267770   13.058060    3.329840      1.00       1.0079
     150     4 H    1   -3.359840   16.729280    3.333640      1.00       1.0079
     151     4 H    1   -5.982310   16.431580    3.156620      1.00       1.0079
     152     4 H    1   -5.235350   11.543030    3.201190      1.00       1.0079
     153     4 H    1   -7.744920   14.985850    2.999020      1.00       1.0079
     154     1 O    8   14.179910   11.073460    3.213440      6.00      15.9994
     155     2 N    7   11.695730   10.687130    3.411460      5.00      14.0067
     156     3 C    6   14.410060    9.826610    3.369410      4.00      12.0107
     157     3 C    6   11.967650    9.387540    3.161720      4.00      12.0107
     158     3 C    6   10.449370   11.177860    3.238480      4.00      12.0107
     159     3 C    6    9.384620   10.310850    3.128220      4.00      12.0107
     160     3 C    6    8.158370   10.916200    3.202220      4.00      12.0107
     161     3 C    6    8.056730   12.377990    3.394840      4.00      12.0107
     162     3 C    6    9.220590   13.173460    3.359120      4.00      12.0107
     163     3 C    6   10.408580   12.548730    3.230330      4.00      12.0107
     164     3 C    6   13.258550    8.883950    3.322040      4.00      12.0107
     165     4 H    1   11.173780    8.668440    2.853560      1.00       1.0079
     166     4 H    1    9.511520    9.244300    3.088680      1.00       1.0079
     167     4 H    1   12.583470   11.253610    3.488590      1.00       1.0079
     168     4 H    1   11.349980   13.036650    3.130570      1.00       1.0079
     169     4 H    1    7.285290   10.290820    3.214000      1.00       1.0079
     170     4 H    1    9.237810   14.222690    3.452220      1.00       1.0079
     171     1 O    8   12.471380    6.725740    3.075550      6.00      15.9994
     172     2 N    7   14.099150    4.859910    3.339680      5.00      14.0067
     173     3 C    6   13.533850    7.503960    3.193230      4.00      12.0107
     174     3 C    6   15.098410    5.743090    3.327090      4.00      12.0107
     175     3 C    6   14.309480    3.502560    3.220240      4.00      12.0107
     176     3 C    6   15.638340    2.941860    3.224850      4.00      12.0107
     177     3 C    6   15.783730    1.593650    3.357260      4.00      12.0107
     178     3 C    6   14.643710    0.710710    3.236950      4.00      12.0107
     179     3 C    6   13.365230    1.355020    3.132290      4.00      12.0107
     180     3 C    6   13.164840    2.681810    3.169090      4.00      12.0107
     181     3 C    6   14.900360    7.102120    3.260250      4.00      12.0107
     182     4 H    1   16.155020    5.429620    3.473270      1.00       1.0079
     183     4 H    1   16.488350    3.626780    3.258470      1.00       1.0079
     184     4 H    1   13.134960    5.301730    3.278910      1.00       1.0079
     185     4 H    1   12.184080    3.076580    3.240910      1.00       1.0079
     186     4 H    1   16.689490    1.131370    3.522780      1.00       1.0079
     187     4 H    1   12.499830    0.798420    2.982010      1.00       1.0079
     188     1 O    8   17.285960    7.382550    3.406840      6.00      15.9994
     189     2 N    7   18.081260    9.851660    3.198550      5.00      14.0067
     190     3 C    6   16.122900    7.919650    3.355070      4.00      12.0107
     191     3 C    6   16.808650   10.254410    3.375580      4.00      12.0107
     192     3 C    6   19.150550   10.695020    3.284390      4.00      12.0107
     193     3 C    6   18.939260   12.089100    3.130570      4.00      12.0107
     194     3 C    6   20.049630   12.903920    2.951630      4.00      12.0107
     195     3 C    6   21.345550   12.331450    3.131140      4.00      12.0107
     196     3 C    6   21.518480   10.958000    3.214500      4.00      12.0107
     197     3 C    6   20.425510   10.107600    3.234720      4.00      12.0107
     198     3 C    6   15.784480    9.315840    3.394110      4.00      12.0107
     199     4 H    1   16.532710   11.275440    3.176460      1.00       1.0079
     200     4 H    1   17.932060   12.425830    2.955990      1.00       1.0079
     201     4 H    1   18.248700    8.818260    3.357820      1.00       1.0079
     202     4 H    1   20.417160    9.035750    3.019210      1.00       1.0079
     203     4 H    1   19.925120   13.940180    2.673850      1.00       1.0079
     204     4 H    1   22.468660   10.564780    3.165170      1.00       1.0079
     205     1 O    8    0.310500   14.094550    6.626060      6.00      15.9994
     206     2 N    7    2.873210   14.648130    6.676750      5.00      14.0067
     207     3 C    6    0.219800   15.364440    6.461840      4.00      12.0107
     208     3 C    6    2.588710   15.978630    6.674240      4.00      12.0107
     209     3 C    6    4.078320   14.125940    6.502450      4.00      12.0107
     210     3 C    6    5.238500   14.948500    6.392380      4.00      12.0107
     211     3 C    6    6.452980   14.409000    6.461030      4.00      12.0107
     212     3 C    6    6.617330   12.992150    6.452990      4.00      12.0107
     213     3 C    6    5.448960   12.177330    6.343850      4.00      12.0107
     214     3 C    6    4.241290   12.715250    6.483930      4.00      12.0107
     215     3 C    6    1.299120   16.342020    6.525190      4.00      12.0107
     216     4 H    1    3.369440   16.704950    6.712830      1.00       1.0079
     217     4 H    1    5.056010   16.038670    6.274620      1.00       1.0079
     218     4 H    1    1.937790   14.091190    6.705340      1.00       1.0079
     219     4 H    1    3.371770   12.085620    6.600260      1.00       1.0079
     220     4 H    1    7.319420   14.995760    6.680090      1.00       1.0079
     221     4 H    1    5.517010   11.092870    6.380580      1.00       1.0079
     222     1 O    8    2.131200   18.641890    6.450020      6.00      15.9994
     223     2 N    7    0.591440   20.510740    6.620820      5.00      14.0067
     224     3 C    6    1.107590   17.797630    6.484150      4.00      12.0107
     225     3 C    6   -0.462070   19.672340    6.576980      4.00      12.0107
     226     3 C    6    0.434420   21.874990    6.485830      4.00      12.0107
     227     3 C    6   -0.904210   22.409570    6.490540      4.00      12.0107
     228     3 C    6   -1.008930   23.760350    6.592840      4.00      12.0107
     229     3 C    6    0.114870   24.600150    6.488200      4.00      12.0107
     230     3 C    6    1.370800   24.010220    6.350170      4.00      12.0107
     231     3 C    6    1.564320   22.648490    6.452450      4.00      12.0107
     232     3 C    6   -0.225320   18.272820    6.546710      4.00      12.0107
     233     4 H    1   -1.506830   20.013160    6.583860      1.00       1.0079
     234     4 H    1   -1.725180   21.749170    6.457600      1.00       1.0079
     235     4 H    1    1.502430   19.800960    6.581780      1.00       1.0079
     236     4 H    1    2.561540   22.193450    6.340830      1.00       1.0079
     237     4 H    1   -1.977560   24.195500    6.652960      1.00       1.0079
     238     4 H    1    2.171430   24.733550    6.287380      1.00       1.0079
     239     1 O    8   -2.544090   17.871080    6.610060      6.00      15.9994
     240     2 N    7   -3.397090   15.529710    6.561710      5.00      14.0067
     241     3 C    6   -1.382790   17.387540    6.480460      4.00      12.0107
     242     3 C    6   -2.182690   15.063640    6.411840      4.00      12.0107
     243     3 C    6   -4.535420   14.734160    6.451220      4.00      12.0107
     244     3 C    6   -4.417030   13.344610    6.438840      4.00      12.0107
     245     3 C    6   -5.563420   12.610870    6.543750      4.00      12.0107
     246     3 C    6   -6.848410   13.234720    6.485030      4.00      12.0107
     247     3 C    6   -6.915910   14.626600    6.434590      4.00      12.0107
     248     3 C    6   -5.784220   15.393270    6.441830      4.00      12.0107
     249     3 C    6   -1.095520   15.927200    6.364340      4.00      12.0107
     250     4 H    1   -1.976630   13.952670    6.269830      1.00       1.0079
     251     4 H    1   -3.458730   12.893040    6.375160      1.00       1.0079
     252     4 H    1   -3.350440   16.594820    6.447600      1.00       1.0079
     253     4 H    1   -5.794440   16.477380    6.521030      1.00       1.0079
     254     4 H    1   -5.430720   11.527710    6.570940      1.00       1.0079
     255     4 H    1   -7.864250   15.161900    6.342440      1.00       1.0079
     256     1 O    8   14.263630   11.251440    6.516090      6.00      15.9994
     257     2 N    7   11.790190   10.691300    6.643210      5.00      14.0067
     258     3 C    6   14.446220    9.962000    6.513370      4.00      12.0107
     259     3 C    6   12.019880    9.370390    6.423860      4.00      12.0107
     260     3 C    6   10.558150   11.287490    6.508680      4.00      12.0107
     261     3 C    6    9.428850   10.440270    6.380920      4.00      12.0107
     262     3 C    6    8.162820   11.019210    6.482420      4.00      12.0107
     263     3 C    6    7.975940   12.430660    6.508600      4.00      12.0107
     264     3 C    6    9.142410   13.200340    6.559400      4.00      12.0107
     265     3 C    6   10.415510   12.705000    6.525500      4.00      12.0107
     266     3 C    6   13.345450    8.948630    6.438020      4.00      12.0107
     267     4 H    1   11.287190    8.601110    6.288710      1.00       1.0079
     268     4 H    1    9.545710    9.393450    6.380410      1.00       1.0079
     269     4 H    1   12.842840   11.251690    6.726690      1.00       1.0079
     270     4 H    1   11.288840   13.286870    6.706620      1.00       1.0079
     271     4 H    1    7.287190   10.411130    6.561180      1.00       1.0079
     272     4 H    1    9.041450   14.269840    6.516340      1.00       1.0079
     273     1 O    8   12.496180    6.637590    6.551820      6.00      15.9994
     274     2 N    7   14.137580    4.823820    6.536700      5.00      14.0067
     275     3 C    6   13.520830    7.516100    6.498870      4.00      12.0107
     276     3 C    6   15.128670    5.671090    6.362770      4.00      12.0107
     277     3 C    6   14.259190    3.436770    6.467100      4.00      12.0107
     278     3 C    6   15.515520    2.899970    6.479030      4.00      12.0107
     279     3 C    6   15.740830    1.587410    6.493350      4.00      12.0107
     280     3 C    6   14.640840    0.711680    6.566380      4.00      12.0107
     281     3 C    6   13.328420    1.282570    6.525930      4.00      12.0107
     282     3 C    6   13.110910    2.645870    6.416260      4.00      12.0107
     283     3 C    6   14.857680    7.074040    6.498000      4.00      12.0107
     284     4 H    1   16.177170    5.413290    6.083310      1.00       1.0079
     285     4 H    1   16.388280    3.553600    6.465660      1.00       1.0079
     286     4 H    1   13.106760    5.470050    6.659940      1.00       1.0079
     287     4 H    1   12.138130    3.146160    6.456220      1.00       1.0079
     288     4 H    1   16.745040    1.292510    6.632240      1.00       1.0079
     289     4 H    1   12.488920    0.623270    6.505700      1.00       1.0079
     290     1 O    8   17.132170    7.426960    6.423550      6.00      15.9994
     291     2 N    7   18.097360    9.759150    6.455410      5.00      14.0067
     292     3 C    6   15.993090    7.999450    6.483250      4.00      12.0107
     293     3 C    6   16.876650   10.222390    6.658410      4.00      12.0107
     294     3 C    6   19.122730   10.691520    6.462040      4.00      12.0107
     295     3 C    6   18.892100   12.067910    6.371820      4.00      12.0107
     296     3 C    6   19.973830   12.918450    6.389230      4.00      12.0107
     297     3 C    6   21.233800   12.329100    6.473560      4.00      12.0107
     298     3 C    6   21.491090   10.952270    6.515170      4.00      12.0107
     299     3 C    6   20.384180   10.120810    6.521350      4.00      12.0107
     300     3 C    6   15.725280    9.403560    6.589610      4.00      12.0107
     301     4 H    1   16.708100   11.261300    6.957220      1.00       1.0079
     302     4 H    1   17.900670   12.387730    6.389570      1.00       1.0079
     303     4 H    1   18.060130    8.631950    6.346090      1.00       1.0079
     304     4 H    1   20.379320    9.052180    6.463900      1.00       1.0079
     305     4 H    1   19.885630   13.918900    6.124380      1.00       1.0079
     306     4 H    1   22.479070   10.539350    6.597940      1.00       1.0079
     307     1 O    8    0.390630   14.160900    9.594650      6.00      15.9994
     308     2 N    7    2.851210   14.596690    9.634310      5.00      14.0067
     309     3 C    6    0.234060   15.441200    9.645290      4.00      12.0107
     310     3 C    6    2.600010   15.894190    9.758170      4.00      12.0107
     311     3 C    6    4.106630   14.107750    9.773510      4.00      12.0107
     312     3 C    6    5.202930   14.977210    9.816870      4.00      12.0107
     313     3 C    6    6.438360   14.454170    9.778970      4.00      12.0107
     314     3 C    6    6.602730   13.082290    9.847950      4.00      12.0107
     315     3 C    6    5.533290   12.233830    9.731750      4.00      12.0107
     316     3 C    6    4.260180   12.713520    9.655150      4.00      12.0107
     317     3 C    6    1.332050   16.377500    9.629920      4.00      12.0107
     318     4 H    1    3.477020   16.592300   10.016490      1.00       1.0079
     319     4 H    1    5.095850   16.049040    9.785430      1.00       1.0079
     320     4 H    1    1.896640   14.067200    9.766070      1.00       1.0079
     321     4 H    1    3.349710   12.124630    9.656350      1.00       1.0079
     322     4 H    1    7.304690   15.109580    9.884080      1.00       1.0079
     323     4 H    1    5.734080   11.195560    9.673070      1.00       1.0079
     324     1 O    8    2.199430   18.575220    9.699740      6.00      15.9994
     325     2 N    7    0.492420   20.529210    9.950870      5.00      14.0067
     326     3 C    6    1.175500   17.800930    9.777780      4.00      12.0107
     327     3 C    6   -0.495670   19.627050    9.876040      4.00      12.0107
     328     3 C    6    0.275900   21.903370    9.798200      4.00      12.0107
     329     3 C    6   -1.027210   22.489160    9.995080      4.00      12.0107
     330     3 C    6   -1.146870   23.836730   10.024780      4.00      12.0107
     331     3 C    6    0.027580   24.616030    9.744610      4.00      12.0107
     332     3 C    6    1.294940   24.033470    9.571290      4.00      12.0107
     333     3 C    6    1.418610   22.684260    9.532970      4.00      12.0107
     334     3 C    6   -0.239540   18.275410    9.899010      4.00      12.0107
     335     4 H    1   -1.506040   19.975650    9.751390      1.00       1.0079
     336     4 H    1   -1.850180   21.803540   10.275290      1.00       1.0079
     337     4 H    1    1.487430   20.145090    9.875660      1.00       1.0079
     338     4 H    1    2.359120   22.220470    9.524380      1.00       1.0079
     339     4 H    1   -2.062050   24.322120   10.259270      1.00       1.0079
     340     4 H    1    2.130400   24.623270    9.271440      1.00       1.0079
     341     1 O    8   -2.580910   17.948360    9.826770      6.00      15.9994
     342     2 N    7   -3.355210   15.405210    9.639960      5.00      14.0067
     343     3 C    6   -1.427090   17.406420    9.853120      4.00      12.0107
     344     3 C    6   -2.119280   15.061780    9.453220      4.00      12.0107
     345     3 C    6   -4.450360   14.562770    9.602420      4.00      12.0107
     346     3 C    6   -4.315170   13.176510    9.706360      4.00      12.0107
     347     3 C    6   -5.473650   12.420120    9.758710      4.00      12.0107
     348     3 C    6   -6.756900   13.057760    9.788010      4.00      12.0107
     349     3 C    6   -6.814460   14.502710    9.777030      4.00      12.0107
     350     3 C    6   -5.694890   15.214170    9.568120      4.00      12.0107
     351     3 C    6   -1.075630   16.003180    9.642870      4.00      12.0107
     352     4 H    1   -1.872720   14.083950    9.087860      1.00       1.0079
     353     4 H    1   -3.271730   12.678200    9.677520      1.00       1.0079
     354     4 H    1   -3.521980   16.383380    9.979020      1.00       1.0079
     355     4 H    1   -5.575410   16.288510    9.597010      1.00       1.0079
     356     4 H    1   -5.300620   11.382250    9.875500      1.00       1.0079
     357     4 H    1   -7.767300   14.989150    9.736400      1.00       1.0079
     358     1 O    8   14.143210   11.190530    9.887810      6.00      15.9994
     359     2 N    7   11.672100   10.735400    9.939700      5.00      14.0067
     360     3 C    6   14.292550    9.883050    9.802290      4.00      12.0107
     361     3 C    6   11.877720    9.400880   10.069270      4.00      12.0107
     362     3 C    6   10.442110   11.307950    9.775430      4.00      12.0107
     363     3 C    6    9.345850   10.460090    9.609320      4.00      12.0107
     364     3 C    6    8.082760   10.991480    9.669550      4.00      12.0107
     365     3 C    6    7.959340   12.446810    9.833060      4.00      12.0107
     366     3 C    6    9.123340   13.246350    9.777150      4.00      12.0107
     367     3 C    6   10.358290   12.691140    9.727120      4.00      12.0107
     368     3 C    6   13.200090    8.919960    9.860510      4.00      12.0107
     369     4 H    1   11.101030    8.676330   10.152280      1.00       1.0079
     370     4 H    1    9.643220    9.440840    9.376660      1.00       1.0079
     371     4 H    1   12.602310   11.290820    9.809200      1.00       1.0079
     372     4 H    1   11.266730   13.137980    9.552410      1.00       1.0079
     373     4 H    1    7.275600   10.339040    9.474330      1.00       1.0079
     374     4 H    1    9.176490   14.340570    9.809680      1.00       1.0079
     375     1 O    8   12.345180    6.790300    9.791720      6.00      15.9994
     376     2 N    7   14.161440    4.829880    9.766650      5.00      14.0067
     377     3 C    6   13.422840    7.486760    9.824450      4.00      12.0107
     378     3 C    6   15.150940    5.741740    9.808720      4.00      12.0107
     379     3 C    6   14.341150    3.465090    9.854730      4.00      12.0107
     380     3 C    6   15.623520    2.907630    9.801950      4.00      12.0107
     381     3 C    6   15.759520    1.557860    9.711960      4.00      12.0107
     382     3 C    6   14.608150    0.734650    9.640040      4.00      12.0107
     383     3 C    6   13.346120    1.352810    9.660770      4.00      12.0107
     384     3 C    6   13.177620    2.712430    9.881220      4.00      12.0107
     385     3 C    6   14.873520    7.087060    9.824600      4.00      12.0107
     386     4 H    1   16.203130    5.486270    9.924860      1.00       1.0079
     387     4 H    1   16.455700    3.583020    9.920170      1.00       1.0079
     388     4 H    1   13.203870    5.270490    9.656710      1.00       1.0079
     389     4 H    1   12.303190    3.284870   10.014610      1.00       1.0079
     390     4 H    1   16.721080    1.103350    9.663460      1.00       1.0079
     391     4 H    1   12.476710    0.712700    9.563600      1.00       1.0079
     392     1 O    8   17.255310    7.519810    9.793570      6.00      15.9994
     393     2 N    7   17.878000   10.003590    9.870030      5.00      14.0067
     394     3 C    6   16.022750    7.982670    9.778330      4.00      12.0107
     395     3 C    6   16.589550   10.395070    9.848460      4.00      12.0107
     396     3 C    6   19.010420   10.773430    9.849710      4.00      12.0107
     397     3 C    6   18.886330   12.161420    9.720630      4.00      12.0107
     398     3 C    6   20.012410   12.918550    9.697020      4.00      12.0107
     399     3 C    6   21.264320   12.287280    9.736630      4.00      12.0107
     400     3 C    6   21.346600   10.904980    9.622060      4.00      12.0107
     401     3 C    6   20.245080   10.129940    9.786980      4.00      12.0107
     402     3 C    6   15.631510    9.377290    9.715870      4.00      12.0107
     403     4 H    1   16.264120   11.397750    9.622660      1.00       1.0079
     404     4 H    1   17.956890   12.618760    9.528020      1.00       1.0079
     405     4 H    1   17.980030    8.975820   10.078710      1.00       1.0079
     406     4 H    1   20.260590    9.072480    9.766500      1.00       1.0079
     407     4 H    1   19.871410   13.998530    9.666100      1.00       1.0079
     408     4 H    1   22.345300   10.431220    9.589630      1.00       1.0079




 SCF PARAMETERS         Density guess:                                   RESTART
                        --------------------------------------------------------
                        max_scf:                                              50
                        max_scf_history:                                       0
                        max_diis:                                              4
                        --------------------------------------------------------
                        eps_scf:                                        1.00E-06
                        eps_scf_history:                                0.00E+00
                        eps_diis:                                       1.00E-01
                        eps_eigval:                                     1.00E-05
                        --------------------------------------------------------
                        level_shift [a.u.]:                                 0.00
                        --------------------------------------------------------
                        Outer loop SCF in use 
                        No variables optimised in outer loop
                        eps_scf                                         1.00E-06
                        max_scf                                               10
                        No outer loop optimization
                        step_size                                       5.00E-01

 PW_GRID| Information for grid number                                          1
 PW_GRID| Grid distributed over                                    49 processors
 PW_GRID| Real space group dimensions                                    49    1
 PW_GRID| the grid is blocked:                                                NO
 PW_GRID| Cutoff [a.u.]                                                    300.0
 PW_GRID| spherical cutoff:                                                   NO
 PW_GRID|   Bounds   1           -216     215                Points:         432
 PW_GRID|   Bounds   2           -216     215                Points:         432
 PW_GRID|   Bounds   3            -96      95                Points:         192
 PW_GRID| Volume element (a.u.^3)  0.1819E-02     Volume (a.u.^3)     65166.3335
 PW_GRID| Grid span                                                    FULLSPACE
 PW_GRID|   Distribution                         Average         Max         Min
 PW_GRID|   G-Vectors                           731261.4      731376      730944
 PW_GRID|   G-Rays                                1692.7        1693        1692
 PW_GRID|   Real Space Points                   731261.4      746496      663552

 PW_GRID| Information for grid number                                          2
 PW_GRID| Grid distributed over                                    49 processors
 PW_GRID| Real space group dimensions                                    49    1
 PW_GRID| the grid is blocked:                                                NO
 PW_GRID| Cutoff [a.u.]                                                    100.0
 PW_GRID| spherical cutoff:                                                   NO
 PW_GRID|   Bounds   1           -128     127                Points:         256
 PW_GRID|   Bounds   2           -128     127                Points:         256
 PW_GRID|   Bounds   3            -60      59                Points:         120
 PW_GRID| Volume element (a.u.^3)  0.8286E-02     Volume (a.u.^3)     65166.3335
 PW_GRID| Grid span                                                    FULLSPACE
 PW_GRID|   Distribution                         Average         Max         Min
 PW_GRID|   G-Vectors                           160496.3      162048      158208
 PW_GRID|   G-Rays                                 626.9         633         618
 PW_GRID|   Real Space Points                   160496.3      184320      153600

 PW_GRID| Information for grid number                                          3
 PW_GRID| Grid distributed over                                    49 processors
 PW_GRID| Real space group dimensions                                    49    1
 PW_GRID| the grid is blocked:                                                NO
 PW_GRID| Cutoff [a.u.]                                                     33.3
 PW_GRID| spherical cutoff:                                                   NO
 PW_GRID|   Bounds   1            -72      71                Points:         144
 PW_GRID|   Bounds   2            -72      71                Points:         144
 PW_GRID|   Bounds   3            -32      31                Points:          64
 PW_GRID| Volume element (a.u.^3)  0.4910E-01     Volume (a.u.^3)     65166.3335
 PW_GRID| Grid span                                                    FULLSPACE
 PW_GRID|   Distribution                         Average         Max         Min
 PW_GRID|   G-Vectors                            27083.8       27936       26064
 PW_GRID|   G-Rays                                 188.1         194         181
 PW_GRID|   Real Space Points                    27083.8       27648       18432

 PW_GRID| Information for grid number                                          4
 PW_GRID| Grid distributed over                                    49 processors
 PW_GRID| Real space group dimensions                                    49    1
 PW_GRID| the grid is blocked:                                                NO
 PW_GRID| Cutoff [a.u.]                                                     11.1
 PW_GRID| spherical cutoff:                                                   NO
 PW_GRID|   Bounds   1            -45      44                Points:          90
 PW_GRID|   Bounds   2            -45      44                Points:          90
 PW_GRID|   Bounds   3            -20      19                Points:          40
 PW_GRID| Volume element (a.u.^3)  0.2011         Volume (a.u.^3)     65166.3335
 PW_GRID| Grid span                                                    FULLSPACE
[...]
 flops     5 x     5 x    64          17881046400     100.0%      0.0%      0.0%
 flops    64 x    64 x    96          24945623040     100.0%      0.0%      0.0%
 flops    64 x    96 x    64          24945623040     100.0%      0.0%      0.0%
 flops    96 x    64 x    64          24945623040     100.0%      0.0%      0.0%
 flops     5 x     5 x    92          25704004200     100.0%      0.0%      0.0%
 flops    64 x    64 x   591          28458172416     100.0%      0.0%      0.0%
 flops   591 x    64 x    64          34955427840     100.0%      0.0%      0.0%
 flops    64 x    92 x    96          35859333120     100.0%      0.0%      0.0%
 flops    64 x    96 x    92          35859333120     100.0%      0.0%      0.0%
 flops    92 x    64 x    96          35859333120     100.0%      0.0%      0.0%
 flops    92 x    96 x    64          35859333120     100.0%      0.0%      0.0%
 flops    96 x    64 x    92          35859333120     100.0%      0.0%      0.0%
 flops    96 x    92 x    64          35859333120     100.0%      0.0%      0.0%
 flops     5 x    28 x     5          37402545600     100.0%      0.0%      0.0%
 flops    64 x    92 x   591          40908622848     100.0%      0.0%      0.0%
 flops    92 x    64 x   591          40908622848     100.0%      0.0%      0.0%
 flops   591 x    64 x    92          50248427520     100.0%      0.0%      0.0%
 flops   591 x    92 x    64          50248427520     100.0%      0.0%      0.0%
 flops    92 x    92 x    96          51547791360     100.0%      0.0%      0.0%
 flops    92 x    96 x    92          51547791360     100.0%      0.0%      0.0%
 flops    96 x    92 x    92          51547791360     100.0%      0.0%      0.0%
 flops    92 x    92 x   591          58806145344     100.0%      0.0%      0.0%
 flops    64 x    64 x   594          71506575360     100.0%      0.0%      0.0%
 flops   591 x    92 x    92          72232114560     100.0%      0.0%      0.0%
 flops    13 x     5 x    64          78314537600     100.0%      0.0%      0.0%
 flops     5 x    13 x    64          78696500480     100.0%      0.0%      0.0%
 flops   594 x    64 x    64          87832166400     100.0%      0.0%      0.0%
 flops    64 x    92 x   594         102790702080     100.0%      0.0%      0.0%
 flops    92 x    64 x   594         102790702080     100.0%      0.0%      0.0%
 flops    13 x     5 x    92         112577147800     100.0%      0.0%      0.0%
 flops     5 x    13 x    92         113126219440     100.0%      0.0%      0.0%
 flops   594 x    64 x    92         126258739200     100.0%      0.0%      0.0%
 flops   594 x    92 x    64         126258739200     100.0%      0.0%      0.0%
 flops     5 x     5 x    96         134107848000     100.0%      0.0%      0.0%
 flops    92 x    92 x   594         147761634240     100.0%      0.0%      0.0%
 flops     5 x    28 x    13         165976949320     100.0%      0.0%      0.0%
 flops    13 x    28 x     5         165976949320     100.0%      0.0%      0.0%
 flops   594 x    92 x    92         181496937600     100.0%      0.0%      0.0%
 flops    96 x    96 x    64         187092172800     100.0%      0.0%      0.0%
 flops    64 x    96 x    96         187092172800     100.0%      0.0%      0.0%
 flops    96 x    64 x    96         187092172800     100.0%      0.0%      0.0%
 flops    64 x    96 x   591         213436293120     100.0%      0.0%      0.0%
 flops    96 x    64 x   591         213436293120     100.0%      0.0%      0.0%
 flops   591 x    64 x    96         262165708800     100.0%      0.0%      0.0%
 flops   591 x    96 x    64         262165708800     100.0%      0.0%      0.0%
 flops    96 x    96 x    92         268944998400     100.0%      0.0%      0.0%
 flops    92 x    96 x    96         268944998400     100.0%      0.0%      0.0%
 flops    96 x    92 x    96         268944998400     100.0%      0.0%      0.0%
 flops   591 x    64 x   591         276474074112     100.0%      0.0%      0.0%
 flops    92 x    96 x   591         306814671360     100.0%      0.0%      0.0%
 flops    96 x    92 x   591         306814671360     100.0%      0.0%      0.0%
 flops    13 x    13 x    64         342957989504     100.0%      0.0%      0.0%
 flops   591 x    92 x    96         376863206400     100.0%      0.0%      0.0%
 flops   591 x    96 x    92         376863206400     100.0%      0.0%      0.0%
 flops   591 x    92 x   591         397431481536     100.0%      0.0%      0.0%
 flops    13 x    13 x    92         493002109912     100.0%      0.0%      0.0%
 flops    64 x    96 x   594         536299315200     100.0%      0.0%      0.0%
 flops    96 x    64 x   594         536299315200     100.0%      0.0%      0.0%
 flops    13 x     5 x    96         587359032000     100.0%      0.0%      0.0%
 flops     5 x    13 x    96         590223753600     100.0%      0.0%      0.0%
 flops   594 x    96 x    64         658741248000     100.0%      0.0%      0.0%
 flops   594 x    64 x    96         658741248000     100.0%      0.0%      0.0%
 flops   594 x    64 x   591         694693739520     100.0%      0.0%      0.0%
 flops   591 x    64 x   594         694693739520     100.0%      0.0%      0.0%
 flops    13 x    28 x    13         720115911424     100.0%      0.0%      0.0%
 flops    92 x    96 x   594         770930265600     100.0%      0.0%      0.0%
 flops    96 x    92 x   594         770930265600     100.0%      0.0%      0.0%
 flops     5 x    32 x     5         812169561600     100.0%      0.0%      0.0%
 flops   594 x    96 x    92         946940544000     100.0%      0.0%      0.0%
 flops   594 x    92 x    96         946940544000     100.0%      0.0%      0.0%
 flops   594 x    92 x   591         998622250560     100.0%      0.0%      0.0%
 flops   591 x    92 x   594         998622250560     100.0%      0.0%      0.0%
 flops    96 x    96 x    96        1403191296000     100.0%      0.0%      0.0%
 flops    96 x    96 x   591        1600772198400     100.0%      0.0%      0.0%
 flops   594 x    64 x   594        1745550259200     100.0%      0.0%      0.0%
 flops   591 x    96 x    96        1966242816000     100.0%      0.0%      0.0%
 flops   591 x    96 x   591        2073555555840     100.0%      0.0%      0.0%
 flops   594 x    92 x   594        2509228497600     100.0%      0.0%      0.0%
 flops    13 x    13 x    96        2572184921280     100.0%      0.0%      0.0%
 flops     5 x    32 x    13        3604070899520     100.0%      0.0%      0.0%
 flops    13 x    32 x     5        3604070899520     100.0%      0.0%      0.0%
 flops    96 x    96 x   594        4022244864000     100.0%      0.0%      0.0%
 flops   594 x    96 x    96        4940559360000     100.0%      0.0%      0.0%
 flops   594 x    96 x   591        5210203046400     100.0%      0.0%      0.0%
 flops   591 x    96 x   594        5210203046400     100.0%      0.0%      0.0%
 flops   594 x    96 x   594       13091626944000     100.0%      0.0%      0.0%
 flops    13 x    32 x    13       15636802648064     100.0%      0.0%      0.0%
 flops inhomo. stacks                           0       0.0%      0.0%      0.0%
 flops total                        89.063970E+12     100.0%      0.0%      0.0%
 flops max/rank                      1.942670E+12     100.0%      0.0%      0.0%
 matmuls inhomo. stacks                         0       0.0%      0.0%      0.0%
 matmuls total                         4167608458     100.0%      0.0%      0.0%
 number of processed stacks              11473044     100.0%      0.0%      0.0%
 average stack size                                   363.3       0.0       0.0
 marketing flops                   121.222457E+12
 -------------------------------------------------------------------------------
 # multiplications                          17356
 max memory usage/rank             618.680320E+06
 # max total images/rank                        1
 # max 3D layers                                1
 # MPI messages exchanged                10205328
 MPI messages size (bytes):
  total size                         4.395287E+12
  min size                           0.000000E+00
  max size                           2.822688E+06
  average size                     430.685562E+03
 MPI breakdown and total messages size (bytes):
             size <=      128               42840                        0
       128 < size <=     8192                   0                        0
      8192 < size <=    32768               99930               3253864704
     32768 < size <=   131072             4693824             313234521600
    131072 < size <=  4194304             5368734            4079413094688
   4194304 < size <= 16777216                   0                        0
  16777216 < size                               0                        0
 -------------------------------------------------------------------------------
 
 MEMORY| Estimated peak process memory [MiB]                                 591

 -------------------------------------------------------------------------------
 ----                             MULTIGRID INFO                            ----
 -------------------------------------------------------------------------------
 count for grid        1:        3509609          cutoff [a.u.]          300.00
 count for grid        2:        4286590          cutoff [a.u.]          100.00
 count for grid        3:        6927763          cutoff [a.u.]           33.33
 count for grid        4:        5944220          cutoff [a.u.]           11.11
 total gridlevel count  :       20668182

 -------------------------------------------------------------------------------
 -                                                                             -
 -                         MESSAGE PASSING PERFORMANCE                         -
 -                                                                             -
 -------------------------------------------------------------------------------

 ROUTINE             CALLS      AVE VOLUME [Bytes]
 MP_Group             1043
 MP_Bcast            12127                  63510.
 MP_Allreduce        74339                    294.
 MP_Sync               285
 MP_Alltoall         78143                5531315.
 MP_SendRecv          9792                   4415.
 MP_ISendRecv       148416                 139392.
 MP_Wait           1452040
 MP_comm_split         281
 MP_ISend           527082                 295719.
 MP_IRecv           527082                 293506.
 MP_Recv              2983                 585480.
 MP_Memory          698904
 -------------------------------------------------------------------------------


 -------------------------------------------------------------------------------
 -                                                                             -
 -                           R E F E R E N C E S                               -
 -                                                                             -
 -------------------------------------------------------------------------------
 
 CP2K version 5.1, the CP2K developers group (2017).
 CP2K is freely available from https://www.cp2k.org/ .

 Schuett, Ole; Messmer, Peter; Hutter, Juerg; VandeVondele, Joost. 
 Electronic Structure Calculations on Graphics Processing Units, John Wiley & Sons, Ltd, 173-190 (2016). 
 GPU-Accelerated Sparse Matrix-Matrix Multiplication for Linear Scaling Density Functional Theory.
 http://dx.doi.org/10.1002/9781118670712.ch8


 Borstnik, U; VandeVondele, J; Weber, V; Hutter, J. 
 PARALLEL COMPUTING, 40 (5-6), 47-58 (2014). 
 Sparse matrix multiplication: The distributed block-compressed sparse
 row library.
 http://dx.doi.org/10.1016/j.parco.2014.03.012


 Hutter, J; Iannuzzi, M; Schiffmann, F; VandeVondele, J. 
 WILEY INTERDISCIPLINARY REVIEWS-COMPUTATIONAL MOLECULAR SCIENCE, 4 (1), 15-25 (2014). 
 CP2K: atomistic simulations of condensed matter systems.
 http://dx.doi.org/10.1002/wcms.1159


 Grimme, S; Ehrlich, S; Goerigk, L. 
 JOURNAL OF COMPUTATIONAL CHEMISTRY, 32, 1456 (2011). 
 Effect of the damping function in dispersion corrected density functional theory.
 http://dx.doi.org/10.1002/jcc.21759


 Grimme, S; Antony, J; Ehrlich, S; Krieg, H. 
 JOURNAL OF CHEMICAL PHYSICS, 132 (15), 154104 (2010). 
 A consistent and accurate ab initio parametrization of density
 functional dispersion correction (DFT-D) for the 94 elements H-Pu.
 http://dx.doi.org/10.1063/1.3382344


 VandeVondele, J; Hutter, J. 
 JOURNAL OF CHEMICAL PHYSICS, 127 (11), 114105 (2007). 
 Gaussian basis sets for accurate calculations on molecular systems in
 gas and condensed phases.
 http://dx.doi.org/10.1063/1.2770708


 Krack, M. 
 THEORETICAL CHEMISTRY ACCOUNTS, 114 (1-3), 145-152 (2005). 
 Pseudopotentials for H to Kr optimized for gradient-corrected
 exchange-correlation functionals.
 http://dx.doi.org/10.1007/s00214-005-0655-y


 VandeVondele, J; Krack, M; Mohamed, F; Parrinello, M; Chassaing, T;
 Hutter, J. COMPUTER PHYSICS COMMUNICATIONS, 167 (2), 103-128 (2005). 
 QUICKSTEP: Fast and accurate density functional calculations using a
 mixed Gaussian and plane waves approach.
 http://dx.doi.org/10.1016/j.cpc.2004.12.014


 Frigo, M; Johnson, SG. 
 PROCEEDINGS OF THE IEEE, 93 (2), 216-231 (2005). 
 The design and implementation of FFTW3.
 http://dx.doi.org/10.1109/JPROC.2004.840301


 Kolafa, J. 
 JOURNAL OF COMPUTATIONAL CHEMISTRY, 25 (3), 335-342 (2004). 
 Time-reversible always stable predictor-corrector method for molecular dynamics of polarizable molecules.
 http://dx.doi.org/10.1002/jcc.10385


 VandeVondele, J; Hutter, J. 
 JOURNAL OF CHEMICAL PHYSICS, 118 (10), 4365-4369 (2003). 
 An efficient orbital transformation method for electronic structure
 calculations.
 http://dx.doi.org/10.1063/1.1543154


 Hartwigsen, C; Goedecker, S; Hutter, J. 
 PHYSICAL REVIEW B, 58 (7), 3641-3662 (1998). 
 Relativistic separable dual-space Gaussian pseudopotentials from H to Rn.
 http://dx.doi.org/10.1103/PhysRevB.58.3641


 Lippert, G; Hutter, J; Parrinello, M. 
 MOLECULAR PHYSICS, 92 (3), 477-487 (1997). 
 A hybrid Gaussian and plane wave density functional scheme.
 http://dx.doi.org/10.1080/002689797170220


 Perdew, JP; Burke, K; Ernzerhof, M. 
 PHYSICAL REVIEW LETTERS, 77 (18), 3865-3868 (1996). 
 Generalized gradient approximation made simple.
 http://dx.doi.org/10.1103/PhysRevLett.77.3865


 Goedecker, S; Teter, M; Hutter, J. 
 PHYSICAL REVIEW B, 54 (3), 1703-1710 (1996). 
 Separable dual-space Gaussian pseudopotentials.
 http://dx.doi.org/10.1103/PhysRevB.54.1703


 -------------------------------------------------------------------------------
 -                                                                             -
 -                                T I M I N G                                  -
 -                                                                             -
 -------------------------------------------------------------------------------
 SUBROUTINE                       CALLS  ASD         SELF TIME        TOTAL TIME
                                MAXIMUM       AVERAGE  MAXIMUM  AVERAGE  MAXIMUM
 CP2K                                 1  1.0    0.074    0.105 3516.072 3516.079
 cp_geo_opt                           1  2.0    0.003    0.005 3515.018 3515.033
 geoopt_bfgs                          1  3.0    0.070    0.123 3515.016 3515.029
 cp_eval_at                          51  4.0    0.011    0.026 3508.148 3508.153
 qs_forces                           51  5.0    0.020    0.033 3508.107 3508.113
 qs_energies                         51  6.0    0.009    0.028 3276.651 3276.692
 scf_env_do_scf                      51  7.0    0.012    0.044 3163.805 3163.811
 scf_env_do_scf_inner_loop          722  8.0    0.029    0.077 2929.117 2930.010
 rebuild_ks_matrix                  773  9.8    0.003    0.003 2033.593 2035.070
 qs_ks_build_kohn_sham_matrix       773 10.8    0.122    0.189 2033.591 2035.067
 qs_ks_update_qs_env                773  9.0    0.007    0.010 1824.436 1825.824
 qs_rho_update_rho                  773  9.1    0.004    0.005 1134.479 1134.577
 calculate_rho_elec                 773 10.1  799.861  862.585 1134.474 1134.572
 sum_up_and_integrate               773 11.8    4.328    5.121 1070.278 1071.741
 integrate_v_rspace                 773 12.8  797.818  857.804 1065.948 1068.384
 pw_transfer                      14738 13.5    1.067    1.467  938.020 1009.973
 fft_wrap_pw1pw2                  13192 14.6    0.120    0.163  929.501 1002.515
 fft_wrap_pw1pw2_300               8554 15.6   51.015   60.110  890.222  960.178
 fft3d_ps                         13192 16.6  371.234  481.817  770.739  868.790
 qs_vxc_create                      773 11.8    0.015    0.021  810.113  817.342
 xc_vxc_pw_create                   773 12.8   34.227   37.937  810.098  817.331
 xc_rho_set_and_dset_create         773 13.8    2.635    3.298  401.416  446.229
 mp_alltoall_z22v                 13192 18.6  287.419  400.723  287.419  400.723
 density_rs2pw                      773 11.1    0.041    0.050  305.308  358.721
 rs_pw_transfer                    6286 13.4    0.062    0.079  239.834  297.567
 x_to_yz                           6957 18.1   71.210   80.619  213.787  252.984
 yz_to_x                           6235 17.0   40.624   48.353  185.466  243.898
 init_scf_loop                       51  8.0    0.002    0.010  233.646  233.659
 dbcsr_multiply_generic           17356 14.1    0.999    1.083  210.034  214.166
 qs_ks_update_qs_env_forces          51  6.0    0.000    0.000  209.729  209.843
 potential_pw2rs                    773 13.8    0.257    0.305  195.352  197.565
 mp_waitany                       41318 15.3  107.691  182.034  107.691  182.034
 qs_scf_new_mos                     722  9.0    0.004    0.006  174.073  177.715
 qs_scf_loop_do_ot                  722 10.0    0.012    0.028  174.068  177.711
 ot_scf_mini                        722 11.0    0.041    0.058  163.937  167.636
 multiply_cannon                  17356 15.1    2.322    2.792  154.455  167.133
 xc_functional_eval                 773 14.8    0.007    0.009  111.763  155.156
 pbe_lda_eval                       773 15.8  111.757  155.148  111.757  155.148
 rs_pw_transfer_RS2PW_300           824 12.9   25.478   33.279   89.850  154.921
 mp_alltoall_d11v                 14485 15.0   76.297  127.633   76.297  127.633
 rs_distribute_matrix              1597 12.4    2.026    3.896   76.967  127.262
 ot_mini                            722 12.0    0.007    0.011  107.952  112.201
 multiply_cannon_multrec         121492 16.1   90.041  101.654   90.148  101.765
 prepare_preconditioner              51  9.0    0.000    0.000  100.856  101.134
 mp_waitall_1                   1410722 17.3   72.271   98.256   72.271   98.256
 make_preconditioner                 51 10.0    0.004    0.007   95.027   95.064
 init_scf_run                        51  7.0    0.005    0.013   90.550   90.552
 scf_env_initial_rho_setup           51  8.0    0.002    0.007   90.543   90.547
 make_full_all                       51 11.0    0.015    0.024   88.822   88.844
 wfi_extrapolate                     51  9.0    0.010    0.021   88.641   88.645
 rs_pw_transfer_RS2PW_100           773 13.1   11.871   15.279   32.996   77.021
 -------------------------------------------------------------------------------

 The number of warnings for this run is : 0
 
 -------------------------------------------------------------------------------
  **** **** ******  **  PROGRAM ENDED AT                 2018-10-11 13:48:54.896
 ***** ** ***  *** **   PROGRAM RAN ON                                      g099
 **    ****   ******    PROGRAM RAN BY                                    ongari
 ***** **    ** ** **   PROGRAM PROCESS ID                                  1649
  **** **  *******  **  PROGRAM STOPPED IN /scratch/ongari/proj44_studycases/CEL
                                           LOPT/3_GEO_OPT_bfgs
