 DBCSR| Multiplication driver                                               BLAS
 DBCSR| Multrec recursion limit                                              512
 DBCSR| Multiplication stack size                                           1000
 DBCSR| Maximum elements for images                                    UNLIMITED
 DBCSR| Multiplicative factor virtual images                                   1
 DBCSR| Multiplication size stacks                                             3
 DBCSR| Number of 3D layers                                               SINGLE
 DBCSR| Use MPI memory allocation                                              T
 DBCSR| Use RMA algorithm                                                      F
 DBCSR| Use Communication thread                                               T
 DBCSR| Communication thread load                                             87


  **** **** ******  **  PROGRAM STARTED AT               2019-02-05 18:49:35.433
 ***** ** ***  *** **   PROGRAM STARTED ON                                  g118
 **    ****   ******    PROGRAM STARTED BY                                ongari
 ***** **    ** ** **   PROGRAM PROCESS ID                                 20013
  **** **  *******  **  PROGRAM STARTED IN /scratch/ongari/proj33_corecofs_testC
                                           ELLOPT/8_NPT_F/1_3d_from_09000Ncellop
                                           t/NPT_F_PCON-500

 CP2K| version string:                                          CP2K version 5.1
 CP2K| source code revision number:                                    svn:18091
 CP2K| cp2kflags: libint fftw3 pexsi parallel mpi3 scalapack libderiv_max_am1=5
 CP2K|            libint_max_am=6
 CP2K| is freely available from                            https://www.cp2k.org/
 CP2K| Program compiled at                          Thu Jul 5 11:15:01 CEST 2018
 CP2K| Program compiled on                                                  f016
 CP2K| Program compiled for                  linux-rhel7-x86_E5v4_Mellanox-intel
 CP2K| Data directory path            /home/ongari/aiida-database/data/cp2k/data
 CP2K| Input file name                                                 aiida.inp

 GLOBAL| Force Environment number                                              1
 GLOBAL| Basis set file name                                        BASIS_MOLOPT
 GLOBAL| Potential file name                                      GTH_POTENTIALS
 GLOBAL| MM Potential file name                                     MM_POTENTIAL
 GLOBAL| Coordinate file name                                   aiida.coords.xyz
 GLOBAL| Method name                                                        CP2K
 GLOBAL| Project name                                                      aiida
 GLOBAL| Preferred FFT library                                             FFTW3
 GLOBAL| Preferred diagonalization lib.                                       SL
 GLOBAL| Run type                                                             MD
 GLOBAL| All-to-all communication in single precision                          F
 GLOBAL| FFTs using library dependent lengths                                  T
 GLOBAL| Global print level                                               MEDIUM
 GLOBAL| Total number of message passing processes                            56
 GLOBAL| Number of threads for this process                                    1
 GLOBAL| This output is from process                                           0
 GLOBAL| CPU model name :  Intel(R) Xeon(R) Gold 6132 CPU @ 2.60GHz

 MEMORY| system memory details [Kb]
 MEMORY|                        rank 0           min           max       average
 MEMORY| MemTotal            197738988     197738988     197738988     197738988
 MEMORY| MemFree             180519020     180519020     180936676     180727848
 MEMORY| Buffers                  6200          2472          6200          4336
 MEMORY| Cached                 499480        441380        499480        470430
 MEMORY| Slab                   341236        309148        341236        325192
 MEMORY| SReclaimable           112420        102096        112420        107258
 MEMORY| MemLikelyFree       181137120     181137120     181482624     181309872


 *** Fundamental physical constants (SI units) ***

 *** Literature: B. J. Mohr and B. N. Taylor,
 ***             CODATA recommended values of the fundamental physical
 ***             constants: 2006, Web Version 5.1
 ***             http://physics.nist.gov/constants

 Speed of light in vacuum [m/s]                             2.99792458000000E+08
 Magnetic constant or permeability of vacuum [N/A**2]       1.25663706143592E-06
 Electric constant or permittivity of vacuum [F/m]          8.85418781762039E-12
 Planck constant (h) [J*s]                                  6.62606896000000E-34
 Planck constant (h-bar) [J*s]                              1.05457162825177E-34
 Elementary charge [C]                                      1.60217648700000E-19
 Electron mass [kg]                                         9.10938215000000E-31
 Electron g factor [ ]                                     -2.00231930436220E+00
 Proton mass [kg]                                           1.67262163700000E-27
 Fine-structure constant                                    7.29735253760000E-03
 Rydberg constant [1/m]                                     1.09737315685270E+07
 Avogadro constant [1/mol]                                  6.02214179000000E+23
 Boltzmann constant [J/K]                                   1.38065040000000E-23
 Atomic mass unit [kg]                                      1.66053878200000E-27
 Bohr radius [m]                                            5.29177208590000E-11

 *** Conversion factors ***

 [u] -> [a.u.]                                              1.82288848426455E+03
 [Angstrom] -> [Bohr] = [a.u.]                              1.88972613288564E+00
 [a.u.] = [Bohr] -> [Angstrom]                              5.29177208590000E-01
 [a.u.] -> [s]                                              2.41888432650478E-17
 [a.u.] -> [fs]                                             2.41888432650478E-02
 [a.u.] -> [J]                                              4.35974393937059E-18
 [a.u.] -> [N]                                              8.23872205491840E-08
 [a.u.] -> [K]                                              3.15774647902944E+05
 [a.u.] -> [kJ/mol]                                         2.62549961709828E+03
 [a.u.] -> [kcal/mol]                                       6.27509468713739E+02
 [a.u.] -> [Pa]                                             2.94210107994716E+13
 [a.u.] -> [bar]                                            2.94210107994716E+08
 [a.u.] -> [atm]                                            2.90362800883016E+08
 [a.u.] -> [eV]                                             2.72113838565563E+01
 [a.u.] -> [Hz]                                             6.57968392072181E+15
 [a.u.] -> [1/cm] (wave numbers)                            2.19474631370540E+05
 [a.u./Bohr**2] -> [1/cm]                                   5.14048714338585E+03


 CELL_TOP| Volume [angstrom^3]:                                         7798.172
 CELL_TOP| Vector a [angstrom    27.720     0.000     0.000    |a| =      27.720
 CELL_TOP| Vector b [angstrom     0.000    27.712     0.000    |b| =      27.712
 CELL_TOP| Vector c [angstrom    -0.000     0.000    10.152    |c| =      10.152
 CELL_TOP| Angle (b,c), alpha [degree]:                                   90.000
 CELL_TOP| Angle (a,c), beta  [degree]:                                   90.000
 CELL_TOP| Angle (a,b), gamma [degree]:                                   90.000
 CELL_TOP| Numerically orthorhombic:                                          NO

 GENERATE|  Preliminary Number of Bonds generated:                             0
 GENERATE|  Achieved consistency in connectivity generation.

 CELL| Volume [angstrom^3]:                                             7798.172
 CELL| Vector a [angstrom]:      27.720     0.000     0.000    |a| =      27.720
 CELL| Vector b [angstrom]:       0.000    27.712     0.000    |b| =      27.712
 CELL| Vector c [angstrom]:      -0.000     0.000    10.152    |c| =      10.152
 CELL| Angle (b,c), alpha [degree]:                                       90.000
 CELL| Angle (a,c), beta  [degree]:                                       90.000
 CELL| Angle (a,b), gamma [degree]:                                       90.000
 CELL| Numerically orthorhombic:                                              NO

 CELL_REF| Volume [angstrom^3]:                                         7798.172
 CELL_REF| Vector a [angstrom    27.720     0.000     0.000    |a| =      27.720
 CELL_REF| Vector b [angstrom     0.000    27.712     0.000    |b| =      27.712
 CELL_REF| Vector c [angstrom    -0.000     0.000    10.152    |c| =      10.152
 CELL_REF| Angle (b,c), alpha [degree]:                                   90.000
 CELL_REF| Angle (a,c), beta  [degree]:                                   90.000
 CELL_REF| Angle (a,b), gamma [degree]:                                   90.000
 CELL_REF| Numerically orthorhombic:                                          NO

 *******************************************************************************
 *******************************************************************************
 **                                                                           **
 **     #####                         ##              ##                      **
 **    ##   ##            ##          ##              ##                      **
 **   ##     ##                       ##            ######                    **
 **   ##     ##  ##   ##  ##   #####  ##  ##   ####   ##    #####    #####    **
 **   ##     ##  ##   ##  ##  ##      ## ##   ##      ##   ##   ##  ##   ##   **
 **   ##  ## ##  ##   ##  ##  ##      ####     ###    ##   ######   ######    **
 **    ##  ###   ##   ##  ##  ##      ## ##      ##   ##   ##       ##        **
 **     #######   #####   ##   #####  ##  ##  ####    ##    #####   ##        **
 **           ##                                                    ##        **
 **                                                                           **
 **                                                ... make the atoms dance   **
 **                                                                           **
 **            Copyright (C) by CP2K developers group (2000 - 2017)           **
 **                                                                           **
 *******************************************************************************

 DFT| Spin restricted Kohn-Sham (RKS) calculation                            RKS
 DFT| Multiplicity                                                             1
 DFT| Number of spin states                                                    1
 DFT| Charge                                                                   0
 DFT| Self-interaction correction (SIC)                                       NO
 DFT| Cutoffs: density                                              1.000000E-10
 DFT|          gradient                                             1.000000E-10
 DFT|          tau                                                  1.000000E-10
 DFT|          cutoff_smoothing_range                               0.000000E+00
 DFT| XC density smoothing                                                  NONE
 DFT| XC derivatives                                                          PW
 FUNCTIONAL| ROUTINE=NEW
 FUNCTIONAL| PBE:
 FUNCTIONAL| J.P.Perdew, K.Burke, M.Ernzerhof, Phys. Rev. Letter, vol. 77, n 18,
 FUNCTIONAL|  pp. 3865-3868, (1996){spin unpolarized}
 vdW POTENTIAL|                                                   Pair Potential
 vdW POTENTIAL|          DFT-D3 (Version 3.1)
 vdW POTENTIAL|          Potential Form: S. Grimme et al, JCP 132: 154104 (2010)
 vdW POTENTIAL|          BJ Damping: S. Grimme et al, JCC 32: 1456 (2011)
 vdW POTENTIAL|          Cutoff Radius [Bohr]:                             20.00
 vdW POTENTIAL|          s6 Scaling Factor:                               1.0000
 vdW POTENTIAL|          a1 Damping Factor:                               0.4289
 vdW POTENTIAL|          s8 Scaling Factor:                               0.7875
 vdW POTENTIAL|          a2 Damping Factor:                               4.4407
 vdW POTENTIAL|          Cutoff for CN calculation:                   0.1000E-05

 QS| Method:                                                                 GPW
 QS| Density plane wave grid type                        NON-SPHERICAL FULLSPACE
 QS| Number of grid levels:                                                    4
 QS| Density cutoff [a.u.]:                                                150.0
 QS| Multi grid cutoff [a.u.]: 1) grid level                               150.0
 QS|                           2) grid level                                50.0
 QS|                           3) grid level                                16.7
 QS|                           4) grid level                                 5.6
 QS| Grid level progression factor:                                          3.0
 QS| Relative density cutoff [a.u.]:                                        25.0
 QS| Consistent realspace mapping and integration
 QS| Interaction thresholds: eps_pgf_orb:                                1.0E-05
 QS|                         eps_filter_matrix:                          0.0E+00
 QS|                         eps_core_charge:                            1.0E-12
 QS|                         eps_rho_gspace:                             1.0E-10
 QS|                         eps_rho_rspace:                             1.0E-10
 QS|                         eps_gvg_rspace:                             1.0E-05
 QS|                         eps_ppl:                                    1.0E-02
 QS|                         eps_ppnl:                                   1.0E-07


 ATOMIC KIND INFORMATION

  1. Atomic kind: C                                     Number of atoms:     164

     Orbital Basis Set                                     DZVP-MOLOPT-SR-GTH-q4

       Number of orbital shell sets:                                           1
       Number of orbital shells:                                               5
       Number of primitive Cartesian functions:                                5
       Number of Cartesian basis functions:                                   14
       Number of spherical basis functions:                                   13
       Norm type:                                                              2

       Normalised Cartesian orbitals:

                        Set   Shell   Orbital            Exponent    Coefficient

                          1       1    2s                5.605331       0.322515
                                                         2.113016       0.213043
                                                         0.769911      -0.209686
                                                         0.348157      -0.219794
                                                         0.128212      -0.022789

                          1       2    3s                5.605331       0.552234
                                                         2.113016       0.082072
                                                         0.769911       0.007843
                                                         0.348157       0.136893
                                                         0.128212       0.074283

                          1       3    3px               5.605331      -0.703879
                                                         2.113016      -0.642521
                                                         0.769911      -0.374851
                                                         0.348157      -0.139743
                                                         0.128212      -0.027849
                          1       3    3py               5.605331      -0.703879
                                                         2.113016      -0.642521
                                                         0.769911      -0.374851
                                                         0.348157      -0.139743
                                                         0.128212      -0.027849
                          1       3    3pz               5.605331      -0.703879
                                                         2.113016      -0.642521
                                                         0.769911      -0.374851
                                                         0.348157      -0.139743
                                                         0.128212      -0.027849

                          1       4    4px               5.605331      -0.480376
                                                         2.113016      -0.552894
                                                         0.769911      -0.316145
                                                         0.348157       0.210505
                                                         0.128212       0.076095
                          1       4    4py               5.605331      -0.480376
                                                         2.113016      -0.552894
                                                         0.769911      -0.316145
                                                         0.348157       0.210505
                                                         0.128212       0.076095
                          1       4    4pz               5.605331      -0.480376
                                                         2.113016      -0.552894
                                                         0.769911      -0.316145
                                                         0.348157       0.210505
                                                         0.128212       0.076095

                          1       5    4dx2              5.605331       0.640026
                                                         2.113016       0.274300
                                                         0.769911       0.446711
                                                         0.348157       0.028674
                                                         0.128212       0.029790
                          1       5    4dxy              5.605331       1.108557
                                                         2.113016       0.475102
                                                         0.769911       0.773726
                                                         0.348157       0.049666
                                                         0.128212       0.051599
                          1       5    4dxz              5.605331       1.108557
                                                         2.113016       0.475102
                                                         0.769911       0.773726
                                                         0.348157       0.049666
                                                         0.128212       0.051599
                          1       5    4dy2              5.605331       0.640026
                                                         2.113016       0.274300
                                                         0.769911       0.446711
                                                         0.348157       0.028674
                                                         0.128212       0.029790
                          1       5    4dyz              5.605331       1.108557
                                                         2.113016       0.475102
                                                         0.769911       0.773726
                                                         0.348157       0.049666
                                                         0.128212       0.051599
                          1       5    4dz2              5.605331       0.640026
                                                         2.113016       0.274300
                                                         0.769911       0.446711
                                                         0.348157       0.028674
                                                         0.128212       0.029790

     GTH Potential information for                                    GTH-PBE-q4

       Description:                       Goedecker-Teter-Hutter pseudopotential
                                           Goedecker et al., PRB 54, 1703 (1996)
                                          Hartwigsen et al., PRB 58, 3641 (1998)
                                                      Krack, TCA 114, 145 (2005)

       Gaussian exponent of the core charge distribution:               4.364419
       Electronic configuration (s p d ...):                               2   2

       Parameters of the local part of the GTH pseudopotential:

                          rloc        C1          C2          C3          C4
                        0.338471   -8.803674    1.339211

       Parameters of the non-local part of the GTH pseudopotential:

                   l      r(l)      h(i,j,l)

                   0    0.302576    9.622487
                   1    0.291507

  2. Atomic kind: N                                     Number of atoms:      16

     Orbital Basis Set                                     DZVP-MOLOPT-SR-GTH-q5

       Number of orbital shell sets:                                           1
       Number of orbital shells:                                               5
       Number of primitive Cartesian functions:                                5
       Number of Cartesian basis functions:                                   14
       Number of spherical basis functions:                                   13
       Norm type:                                                              2

       Normalised Cartesian orbitals:

                        Set   Shell   Orbital            Exponent    Coefficient

                          1       1    2s                7.341988       0.360561
                                                         2.542637       0.139177
                                                         0.888575      -0.289383
                                                         0.333802      -0.182244
                                                         0.112012      -0.019197

                          1       2    3s                7.341988       0.282000
                                                         2.542637       0.177875
                                                         0.888575      -0.278381
                                                         0.333802       0.008577
                                                         0.112012       0.154176

                          1       3    3px               7.341988      -1.188719
                                                         2.542637      -0.973969
                                                         0.888575      -0.501079
                                                         0.333802      -0.144894
                                                         0.112012      -0.013986
                          1       3    3py               7.341988      -1.188719
                                                         2.542637      -0.973969
                                                         0.888575      -0.501079
                                                         0.333802      -0.144894
                                                         0.112012      -0.013986
                          1       3    3pz               7.341988      -1.188719
                                                         2.542637      -0.973969
                                                         0.888575      -0.501079
                                                         0.333802      -0.144894
                                                         0.112012      -0.013986

                          1       4    4px               7.341988      -0.094798
                                                         2.542637       0.050069
                                                         0.888575      -0.114797
                                                         0.333802       0.144793
                                                         0.112012       0.066710
                          1       4    4py               7.341988      -0.094798
                                                         2.542637       0.050069
                                                         0.888575      -0.114797
                                                         0.333802       0.144793
                                                         0.112012       0.066710
                          1       4    4pz               7.341988      -0.094798
                                                         2.542637       0.050069
                                                         0.888575      -0.114797
                                                         0.333802       0.144793
                                                         0.112012       0.066710

                          1       5    4dx2              7.341988       1.354688
                                                         2.542637       0.690378
                                                         0.888575       0.855359
                                                         0.333802       0.091746
                                                         0.112012       0.001253
                          1       5    4dxy              7.341988       2.346389
                                                         2.542637       1.195770
                                                         0.888575       1.481524
                                                         0.333802       0.158910
                                                         0.112012       0.002169
                          1       5    4dxz              7.341988       2.346389
                                                         2.542637       1.195770
                                                         0.888575       1.481524
                                                         0.333802       0.158910
                                                         0.112012       0.002169
                          1       5    4dy2              7.341988       1.354688
                                                         2.542637       0.690378
                                                         0.888575       0.855359
                                                         0.333802       0.091746
                                                         0.112012       0.001253
                          1       5    4dyz              7.341988       2.346389
                                                         2.542637       1.195770
                                                         0.888575       1.481524
                                                         0.333802       0.158910
                                                         0.112012       0.002169
                          1       5    4dz2              7.341988       1.354688
                                                         2.542637       0.690378
                                                         0.888575       0.855359
                                                         0.333802       0.091746
                                                         0.112012       0.001253

     GTH Potential information for                                    GTH-PBE-q5

       Description:                       Goedecker-Teter-Hutter pseudopotential
                                           Goedecker et al., PRB 54, 1703 (1996)
                                          Hartwigsen et al., PRB 58, 3641 (1998)
                                                      Krack, TCA 114, 145 (2005)

       Gaussian exponent of the core charge distribution:               6.208322
       Electronic configuration (s p d ...):                               2   3

       Parameters of the local part of the GTH pseudopotential:

                          rloc        C1          C2          C3          C4
                        0.283791  -12.415226    1.868096

       Parameters of the non-local part of the GTH pseudopotential:

                   l      r(l)      h(i,j,l)

                   0    0.255405   13.630263
                   1    0.245495

  3. Atomic kind: H                                     Number of atoms:     112

     Orbital Basis Set                                     DZVP-MOLOPT-SR-GTH-q1

       Number of orbital shell sets:                                           1
       Number of orbital shells:                                               3
       Number of primitive Cartesian functions:                                5
       Number of Cartesian basis functions:                                    5
       Number of spherical basis functions:                                    5
       Norm type:                                                              2

       Normalised Cartesian orbitals:

                        Set   Shell   Orbital            Exponent    Coefficient

                          1       1    2s               10.068468      -0.133023
                                                         2.680223      -0.177618
                                                         0.791502      -0.258419
                                                         0.239116      -0.107525
                                                         0.082193      -0.014019

                          1       2    3s               10.068468       0.344673
                                                         2.680223       1.819821
                                                         0.791502      -0.999069
                                                         0.239116       0.017430
                                                         0.082193       0.082660

                          1       3    3px              10.068468       0.155326
                                                         2.680223       0.367157
                                                         0.791502       0.311480
                                                         0.239116       0.080105
                                                         0.082193       0.033440
                          1       3    3py              10.068468       0.155326
                                                         2.680223       0.367157
                                                         0.791502       0.311480
                                                         0.239116       0.080105
                                                         0.082193       0.033440
                          1       3    3pz              10.068468       0.155326
                                                         2.680223       0.367157
                                                         0.791502       0.311480
                                                         0.239116       0.080105
                                                         0.082193       0.033440

     GTH Potential information for                                    GTH-PBE-q1

       Description:                       Goedecker-Teter-Hutter pseudopotential
                                           Goedecker et al., PRB 54, 1703 (1996)
                                          Hartwigsen et al., PRB 58, 3641 (1998)
                                                      Krack, TCA 114, 145 (2005)

       Gaussian exponent of the core charge distribution:              12.500000
       Electronic configuration (s p d ...):                                   1

       Parameters of the local part of the GTH pseudopotential:

                          rloc        C1          C2          C3          C4
                        0.200000   -4.178900    0.724463


 MOLECULE KIND INFORMATION


 All atoms are their own molecule, skipping detailed information


 TOTAL NUMBERS AND MAXIMUM NUMBERS

  Total number of            - Atomic kinds:                                   3
                             - Atoms:                                        292
                             - Shell sets:                                   292
                             - Shells:                                      1236
                             - Primitive Cartesian functions:               1460
                             - Cartesian basis functions:                   3080
                             - Spherical basis functions:                   2900

  Maximum angular momentum of- Orbital basis functions:                        2
                             - Local part of the GTH pseudopotential:          2
                             - Non-local part of the GTH pseudopotential:      0


 MODULE QUICKSTEP:  ATOMIC COORDINATES IN angstrom

  Atom  Kind  Element       X           Y           Z          Z(eff)       Mass

       1     1 C    6   12.896573   12.881106    0.267135      4.00      12.0107
       2     1 C    6   13.833013   12.676038    9.384393      4.00      12.0107
       3     1 C    6   13.745387   11.467941    8.567229      4.00      12.0107
       4     1 C    6   14.800311   13.666835    9.128200      4.00      12.0107
       5     2 N    7   14.482722   11.308234    7.519114      5.00      14.0067
       6     1 C    6   14.286621   10.213015    6.669698      4.00      12.0107
       7     1 C    6   15.386844    9.782014    5.913725      4.00      12.0107
       8     1 C    6   15.264122    8.737973    4.997202      4.00      12.0107
       9     1 C    6   14.026868    8.120080    4.770045      4.00      12.0107
      10     1 C    6   12.927917    8.538640    5.547587      4.00      12.0107
      11     1 C    6   13.045990    9.568300    6.474725      4.00      12.0107
      12     3 H    1   12.146629   12.116386    0.460464      1.00       1.0079
      13     3 H    1   13.009785   10.714837    8.887146      1.00       1.0079
      14     3 H    1   15.520097   13.491233    8.329664      1.00       1.0079
      15     3 H    1   16.334651   10.294919    6.058510      1.00       1.0079
      16     3 H    1   16.138219    8.415848    4.436893      1.00       1.0079
      17     3 H    1   11.962660    8.054725    5.411289      1.00       1.0079
      18     3 H    1   12.169146    9.901223    7.026799      1.00       1.0079
      19     1 C    6   26.756057   26.737407    5.342307      4.00      12.0107
      20     1 C    6   27.693273   26.531526    4.309165      4.00      12.0107
      21     1 C    6   27.605523   25.323554    3.491776      4.00      12.0107
      22     1 C    6    0.940010   27.523132    4.051777      4.00      12.0107
      23     2 N    7    0.622561   25.164819    2.442431      5.00      14.0067
      24     1 C    6    0.427194   24.068067    1.595436      4.00      12.0107
      25     1 C    6    1.526759   23.638469    0.837135      4.00      12.0107
      26     1 C    6    1.404204   22.593683   10.073397      4.00      12.0107
      27     1 C    6    0.166990   21.975857    9.845797      4.00      12.0107
      28     1 C    6   26.787968   22.394309    0.472121      4.00      12.0107
      29     1 C    6   26.905707   23.424830    1.398006      4.00      12.0107
      30     3 H    1   26.006519   25.972327    5.536320      1.00       1.0079
      31     3 H    1   26.869528   24.570900    3.811196      1.00       1.0079
      32     3 H    1    1.660238   27.347133    3.253941      1.00       1.0079
      33     3 H    1    2.474781   24.150773    0.982845      1.00       1.0079
      34     3 H    1    2.278275   22.271710    9.512862      1.00       1.0079
      35     3 H    1   25.822606   21.910616    0.335597      1.00       1.0079
      36     3 H    1   26.029116   23.757060    1.951170      1.00       1.0079
      37     1 C    6    0.963669   14.830394    5.342302      4.00      12.0107
      38     1 C    6    0.026448   15.036284    4.309170      4.00      12.0107
      39     1 C    6    0.114196   16.244260    3.491788      4.00      12.0107
      40     1 C    6   26.779718   14.044670    4.051774      4.00      12.0107
      41     2 N    7   27.097171   16.402971    2.442410      5.00      14.0067
      42     1 C    6   27.292526   17.499751    1.595460      4.00      12.0107
      43     1 C    6   26.192970   17.929329    0.837125      4.00      12.0107
      44     1 C    6   26.315522   18.974122   10.073396      4.00      12.0107
      45     1 C    6   27.552737   19.591946    9.845805      4.00      12.0107
      46     1 C    6    0.931762   19.173494    0.472121      4.00      12.0107
      47     1 C    6    0.814022   18.142967    1.397996      4.00      12.0107
      48     3 H    1    1.713204   15.595478    5.536320      1.00       1.0079
      49     3 H    1    0.850207   16.996897    3.811197      1.00       1.0079
      50     3 H    1   26.059486   14.220672    3.253944      1.00       1.0079
      51     3 H    1   25.244946   17.417034    0.982845      1.00       1.0079
      52     3 H    1   25.441451   19.296097    9.512861      1.00       1.0079
      53     3 H    1    1.897122   19.657192    0.335597      1.00       1.0079
      54     3 H    1    1.690610   17.810744    1.951171      1.00       1.0079
      55     1 C    6   14.823160    0.974824    0.267127      4.00      12.0107
      56     1 C    6   13.886704    1.179909    9.384411      4.00      12.0107
      57     1 C    6   13.974350    2.387984    8.567207      4.00      12.0107
      58     1 C    6   12.919423    0.189096    9.128192      4.00      12.0107
      59     2 N    7   13.237000    2.547698    7.519114      5.00      14.0067
      60     1 C    6   13.433099    3.642929    6.669721      4.00      12.0107
      61     1 C    6   12.332887    4.073910    5.913709      4.00      12.0107
      62     1 C    6   12.455600    5.117974    4.997220      4.00      12.0107
      63     1 C    6   13.692862    5.735843    4.770020      4.00      12.0107
      64     1 C    6   14.791799    5.317309    5.547606      4.00      12.0107
      65     1 C    6   14.673738    4.287626    6.474707      4.00      12.0107
      66     3 H    1   15.573100    1.739547    0.460466      1.00       1.0079
      67     3 H    1   14.709933    3.141108    8.887145      1.00       1.0079
      68     3 H    1   12.199630    0.364703    8.329667      1.00       1.0079
      69     3 H    1   11.385076    3.561015    6.058512      1.00       1.0079
      70     3 H    1   11.581505    5.440085    4.436892      1.00       1.0079
      71     3 H    1   15.757063    5.801207    5.411286      1.00       1.0079
      72     3 H    1   15.550577    3.954715    7.026802      1.00       1.0079
      73     1 C    6    7.905260   19.821366    2.805942      4.00      12.0107
      74     1 C    6    8.109930   20.756662    1.770167      4.00      12.0107
      75     1 C    6    9.321058   20.671807    0.957546      4.00      12.0107
      76     1 C    6    7.119342   21.724042    1.514327      4.00      12.0107
      77     2 N    7    9.476436   21.405521   10.055601      5.00      14.0067
      78     1 C    6   10.574608   21.210734    9.210407      4.00      12.0107
      79     1 C    6   11.005517   22.310595    8.453273      4.00      12.0107
      80     1 C    6   12.049287   22.187660    7.536033      4.00      12.0107
      81     1 C    6   12.670228   20.951567    7.312390      4.00      12.0107
      82     1 C    6   12.248716   19.851849    8.086548      4.00      12.0107
      83     1 C    6   11.219164   19.969997    9.014107      4.00      12.0107
      84     3 H    1    8.669733   19.071409    2.999486      1.00       1.0079
      85     3 H    1   10.072598   19.935932    1.276063      1.00       1.0079
      86     3 H    1    7.294476   22.443609    0.715409      1.00       1.0079
      87     3 H    1   10.492765   23.258522    8.597851      1.00       1.0079
      88     3 H    1   12.373110   23.062361    6.978176      1.00       1.0079
      89     3 H    1   12.734532   18.887325    7.952684      1.00       1.0079
      90     3 H    1   10.887027   19.093262    9.566913      1.00       1.0079
      91     1 C    6   21.764523    5.964970    7.881280      4.00      12.0107
      92     1 C    6   21.970562    6.901682    6.847757      4.00      12.0107
      93     1 C    6   23.178379    6.813841    6.029687      4.00      12.0107
      94     1 C    6   20.978634    7.867716    6.589608      4.00      12.0107
      95     2 N    7   23.338051    7.550529    4.982103      5.00      14.0067
      96     1 C    6   24.433670    7.354304    4.132895      4.00      12.0107
      97     1 C    6   24.865763    8.454854    3.377968      4.00      12.0107
      98     1 C    6   25.909261    8.331873    2.460351      4.00      12.0107
      99     1 C    6   26.529461    7.095446    2.235916      4.00      12.0107
     100     1 C    6   26.108714    5.995867    3.010837      4.00      12.0107
     101     1 C    6   25.079671    6.114113    3.939138      4.00      12.0107
     102     3 H    1   22.529692    5.215555    8.075301      1.00       1.0079
     103     3 H    1   23.933055    6.080768    6.352533      1.00       1.0079
     104     3 H    1   21.154336    8.587713    5.791431      1.00       1.0079
     105     3 H    1   24.352576    9.402644    3.521861      1.00       1.0079
     106     3 H    1   26.232946    9.206497    1.902196      1.00       1.0079
     107     3 H    1   26.594434    5.031281    2.876824      1.00       1.0079
     108     3 H    1   24.746883    5.237204    4.491050      1.00       1.0079
     109     1 C    6    5.955203    7.890963    7.881284      4.00      12.0107
     110     1 C    6    5.749166    6.954253    6.847758      4.00      12.0107
     111     1 C    6    4.541360    7.042102    6.029671      4.00      12.0107
     112     1 C    6    6.741090    5.988215    6.589613      4.00      12.0107
     113     2 N    7    4.381664    6.305400    4.982118      5.00      14.0067
     114     1 C    6    3.286063    6.501635    4.132880      4.00      12.0107
     115     1 C    6    2.853958    5.401079    3.377975      4.00      12.0107
     116     1 C    6    1.810467    5.524062    2.460347      4.00      12.0107
     117     1 C    6    1.190263    6.760488    2.235920      4.00      12.0107
     118     1 C    6    1.611014    7.860071    3.010833      4.00      12.0107
     119     1 C    6    2.640049    7.741822    3.939146      4.00      12.0107
     120     3 H    1    5.190035    8.640380    8.075302      1.00       1.0079
     121     3 H    1    3.786668    7.775164    6.352533      1.00       1.0079
     122     3 H    1    6.565388    5.268219    5.791432      1.00       1.0079
     123     3 H    1    3.367151    4.453291    3.521859      1.00       1.0079
     124     3 H    1    1.486779    4.649438    1.902196      1.00       1.0079
     125     3 H    1    1.125292    8.824656    2.876822      1.00       1.0079
     126     3 H    1    2.972842    8.618733    4.491050      1.00       1.0079
     127     1 C    6   19.814463   21.746433    2.805949      4.00      12.0107
     128     1 C    6   19.609807   20.811150    1.770152      4.00      12.0107
     129     1 C    6   18.398662   20.895990    0.957560      4.00      12.0107
     130     1 C    6   20.600381   19.843757    1.514332      4.00      12.0107
     131     2 N    7   18.243286   20.162285   10.055604      5.00      14.0067
     132     1 C    6   17.145128   20.357075    9.210388      4.00      12.0107
     133     1 C    6   16.714203   19.257205    8.453284      4.00      12.0107
     134     1 C    6   15.670444   19.380145    7.536026      4.00      12.0107
     135     1 C    6   15.049493   20.616235    7.312395      4.00      12.0107
     136     1 C    6   15.471015   21.715957    8.086541      4.00      12.0107
     137     1 C    6   16.500556   21.597805    9.014119      4.00      12.0107
     138     3 H    1   19.049994   22.496396    2.999485      1.00       1.0079
     139     3 H    1   17.647130   21.631872    1.276062      1.00       1.0079
     140     3 H    1   20.425250   19.124196    0.715406      1.00       1.0079
     141     3 H    1   17.226963   18.309280    8.597849      1.00       1.0079
     142     3 H    1   15.346615   18.505443    6.978177      1.00       1.0079
     143     3 H    1   14.985195   22.680480    7.952685      1.00       1.0079
     144     3 H    1   16.832701   22.474544    9.566912      1.00       1.0079
     145     1 C    6   14.823179   14.830776    9.884548      4.00      12.0107
     146     1 C    6   13.886714   15.035846    0.767282      4.00      12.0107
     147     1 C    6   13.974311   16.243957    1.584434      4.00      12.0107
     148     1 C    6   12.919418   14.045029    1.023467      4.00      12.0107
     149     2 N    7   13.237000   16.403604    2.632618      5.00      14.0067
     150     1 C    6   13.433096   17.498873    3.481939      4.00      12.0107
     151     1 C    6   12.332894   17.929858    4.237965      4.00      12.0107
     152     1 C    6   12.455614   18.973894    5.154493      4.00      12.0107
     153     1 C    6   13.692844   19.591846    5.381577      4.00      12.0107
     154     1 C    6   14.791823   19.173212    4.604125      4.00      12.0107
     155     1 C    6   14.673739   18.143568    3.676954      4.00      12.0107
     156     3 H    1   15.573098   15.595523    9.691267      1.00       1.0079
     157     3 H    1   14.709934   16.997055    1.264580      1.00       1.0079
     158     3 H    1   12.199599   14.220576    1.822003      1.00       1.0079
     159     3 H    1   11.385092   17.416947    4.093168      1.00       1.0079
     160     3 H    1   11.581516   19.296033    5.714774      1.00       1.0079
     161     3 H    1   15.757069   19.657147    4.740383      1.00       1.0079
     162     3 H    1   15.550587   17.810635    3.124894      1.00       1.0079
     163     1 C    6    0.963688    0.974479    4.809373      4.00      12.0107
     164     1 C    6    0.026461    1.180349    5.842528      4.00      12.0107
     165     1 C    6    0.114152    2.388372    6.659844      4.00      12.0107
     166     1 C    6   26.779712    0.188736    6.099885      4.00      12.0107
     167     2 N    7   27.097173    2.547001    7.709329      5.00      14.0067
     168     1 C    6   27.292522    3.643825    8.556195      4.00      12.0107
     169     1 C    6   26.192979    4.073406    9.314553      4.00      12.0107
     170     1 C    6   26.315537    5.118178    0.078308      4.00      12.0107
     171     1 C    6   27.552722    5.736079    0.305803      4.00      12.0107
     172     1 C    6    0.931781    5.317533    9.679601      4.00      12.0107
     173     1 C    6    0.814023    4.287037    8.753671      4.00      12.0107
     174     3 H    1    1.713205    1.739579    4.615413      1.00       1.0079
     175     3 H    1    0.850203    3.140980    6.340531      1.00       1.0079
     176     3 H    1   26.059457    0.364673    6.897728      1.00       1.0079
     177     3 H    1   25.244963    3.561097    9.168835      1.00       1.0079
     178     3 H    1   25.441464    5.440176    0.638805      1.00       1.0079
     179     3 H    1    1.897127    5.801258    9.816073      1.00       1.0079
     180     3 H    1    1.690618    3.954795    8.200523      1.00       1.0079
     181     1 C    6   26.756036   12.881456    4.809372      4.00      12.0107
     182     1 C    6   27.693263   12.675586    5.842529      4.00      12.0107
     183     1 C    6   27.605574   11.467562    6.659844      4.00      12.0107
     184     1 C    6    0.940012   13.667199    6.099884      4.00      12.0107
     185     2 N    7    0.622554   11.308933    7.709326      5.00      14.0067
     186     1 C    6    0.427204   10.212112    8.556198      4.00      12.0107
     187     1 C    6    1.526747    9.782529    9.314551      4.00      12.0107
     188     1 C    6    1.404191    8.737753    0.078302      4.00      12.0107
     189     1 C    6    0.167004    8.119857    0.305814      4.00      12.0107
     190     1 C    6   26.787952    8.538396    9.679595      4.00      12.0107
     191     1 C    6   26.905704    9.568897    8.753672      4.00      12.0107
     192     3 H    1   26.006518   12.116356    4.615412      1.00       1.0079
     193     3 H    1   26.869527   10.714949    6.340532      1.00       1.0079
     194     3 H    1    1.660267   13.491261    6.897728      1.00       1.0079
     195     3 H    1    2.474762   10.294841    9.168834      1.00       1.0079
     196     3 H    1    2.278265    8.415760    0.638803      1.00       1.0079
     197     3 H    1   25.822602    8.054679    9.816076      1.00       1.0079
     198     3 H    1   26.029108    9.901139    8.200524      1.00       1.0079
     199     1 C    6   12.896545   26.737032    9.884554      4.00      12.0107
     200     1 C    6   13.833019   26.531953    0.767273      4.00      12.0107
     201     1 C    6   13.745411   25.323851    1.584442      4.00      12.0107
     202     1 C    6   14.800306   27.522777    1.023471      4.00      12.0107
     203     2 N    7   14.482727   25.164203    2.632621      5.00      14.0067
     204     1 C    6   14.286631   24.068925    3.481927      4.00      12.0107
     205     1 C    6   15.386828   23.637951    4.237973      4.00      12.0107
     206     1 C    6   15.264112   22.593901    5.154481      4.00      12.0107
     207     1 C    6   14.026877   21.975963    5.381589      4.00      12.0107
     208     1 C    6   12.927906   22.394584    4.604114      4.00      12.0107
     209     1 C    6   13.045984   23.424240    3.676964      4.00      12.0107
     210     3 H    1   12.146628   25.972284    9.691267      1.00       1.0079
     211     3 H    1   13.009795   24.570745    1.264581      1.00       1.0079
     212     3 H    1   15.520128   27.347228    1.822002      1.00       1.0079
     213     3 H    1   16.334632   24.150856    4.093168      1.00       1.0079
     214     3 H    1   16.138208   22.271769    5.714775      1.00       1.0079
     215     3 H    1   11.962654   21.910659    4.740384      1.00       1.0079
     216     3 H    1   12.169139   23.757169    3.124893      1.00       1.0079
     217     1 C    6   19.814463    7.890531    7.345742      4.00      12.0107
     218     1 C    6   19.609782    6.955200    8.381494      4.00      12.0107
     219     1 C    6   18.398654    7.040040    9.194123      4.00      12.0107
     220     1 C    6   20.600398    5.987828    8.637341      4.00      12.0107
     221     2 N    7   18.243317    6.306344    0.096120      5.00      14.0067
     222     1 C    6   17.145100    6.501130    0.941231      4.00      12.0107
     223     1 C    6   16.714205    5.401288    1.698414      4.00      12.0107
     224     1 C    6   15.670446    5.524224    2.615667      4.00      12.0107
     225     1 C    6   15.049437    6.760288    2.839223      4.00      12.0107
     226     1 C    6   15.471033    7.860040    2.065174      4.00      12.0107
     227     1 C    6   16.500561    7.741878    1.137567      4.00      12.0107
     228     3 H    1   19.049958    8.640458    7.152238      1.00       1.0079
     229     3 H    1   17.647115    7.775933    8.875656      1.00       1.0079
     230     3 H    1   20.425313    5.268229    9.436255      1.00       1.0079
     231     3 H    1   17.226961    4.453366    1.553825      1.00       1.0079
     232     3 H    1   15.346604    4.649521    3.173492      1.00       1.0079
     233     3 H    1   14.985191    8.824551    2.198988      1.00       1.0079
     234     3 H    1   16.832709    8.618618    0.584781      1.00       1.0079
     235     1 C    6    5.955196   21.746923    2.270397      4.00      12.0107
     236     1 C    6    5.749154   20.810185    3.303908      4.00      12.0107
     237     1 C    6    4.541340   20.898012    4.121995      4.00      12.0107
     238     1 C    6    6.741101   19.844150    3.562051      4.00      12.0107
     239     2 N    7    4.381695   20.161331    5.169606      5.00      14.0067
     240     1 C    6    3.286045   20.357564    6.018756      4.00      12.0107
     241     1 C    6    2.853956   19.257030    6.773715      4.00      12.0107
     242     1 C    6    1.810468   19.380010    7.691344      4.00      12.0107
     243     1 C    6    1.190204   20.616412    7.915702      4.00      12.0107
     244     1 C    6    1.611031   21.716021    7.140880      4.00      12.0107
     245     1 C    6    2.640050   21.597762    6.212533      4.00      12.0107
     246     3 H    1    5.190002   22.496314    2.076422      1.00       1.0079
     247     3 H    1    3.786650   21.631091    3.799186      1.00       1.0079
     248     3 H    1    6.565454   19.124124    4.360231      1.00       1.0079
     249     3 H    1    3.367152   18.309246    6.629821      1.00       1.0079
     250     3 H    1    1.486766   18.505386    8.249471      1.00       1.0079
     251     3 H    1    1.125289   22.680596    7.274852      1.00       1.0079
     252     3 H    1    2.972855   22.474679    5.660647      1.00       1.0079
     253     1 C    6   21.764529   19.820879    2.270399      4.00      12.0107
     254     1 C    6   21.970578   20.757622    3.303901      4.00      12.0107
     255     1 C    6   23.178383   20.669790    4.122000      4.00      12.0107
     256     1 C    6   20.978624   21.723652    3.562053      4.00      12.0107
     257     2 N    7   23.338028   21.406473    5.169609      5.00      14.0067
     258     1 C    6   24.433684   21.210243    6.018746      4.00      12.0107
     259     1 C    6   24.865768   22.310774    6.773716      4.00      12.0107
     260     1 C    6   25.909254   22.187793    7.691349      4.00      12.0107
     261     1 C    6   26.529525   20.951395    7.915694      4.00      12.0107
     262     1 C    6   26.108690   19.851781    7.140885      4.00      12.0107
     263     1 C    6   25.079673   19.970042    6.212536      4.00      12.0107
     264     3 H    1   22.529725   19.071490    2.076420      1.00       1.0079
     265     3 H    1   23.933074   19.936711    3.799185      1.00       1.0079
     266     3 H    1   21.154272   22.443680    4.360230      1.00       1.0079
     267     3 H    1   24.352575   23.258559    6.629818      1.00       1.0079
     268     3 H    1   26.232960   23.062419    8.249471      1.00       1.0079
     269     3 H    1   26.594436   18.887208    7.274851      1.00       1.0079
     270     3 H    1   24.746871   19.093127    5.660645      1.00       1.0079
     271     1 C    6    7.905268    5.965407    7.345737      4.00      12.0107
     272     1 C    6    8.109941    6.900730    8.381501      4.00      12.0107
     273     1 C    6    9.321075    6.815896    9.194123      4.00      12.0107
     274     1 C    6    7.119333    7.868109    8.637337      4.00      12.0107
     275     2 N    7    9.476410    7.549591    0.096119      5.00      14.0067
     276     1 C    6   10.574626    7.354804    0.941233      4.00      12.0107
     277     1 C    6   11.005521    8.454646    1.698416      4.00      12.0107
     278     1 C    6   12.049287    8.331713    2.615659      4.00      12.0107
     279     1 C    6   12.670286    7.095644    2.839233      4.00      12.0107
     280     1 C    6   12.248700    5.995897    2.065166      4.00      12.0107
     281     1 C    6   11.219164    6.114056    1.137571      4.00      12.0107
     282     3 H    1    8.669768    5.215474    7.152239      1.00       1.0079
     283     3 H    1   10.072618    6.080007    8.875656      1.00       1.0079
     284     3 H    1    7.294415    8.587705    9.436258      1.00       1.0079
     285     3 H    1   10.492763    9.402569    1.553831      1.00       1.0079
     286     3 H    1   12.373123    9.206413    3.173493      1.00       1.0079
     287     3 H    1   12.734532    5.031382    2.198992      1.00       1.0079
     288     3 H    1   10.887013    5.237315    0.584784      1.00       1.0079
     289     1 C    6    0.000001    6.927964    1.269694      4.00      12.0107
     290     1 C    6   13.859862   20.783901    6.345084      4.00      12.0107
     291     1 C    6   13.859863    6.927970    3.806618      4.00      12.0107
     292     1 C    6   -0.000001   20.783899    8.882012      4.00      12.0107




 SCF PARAMETERS         Density guess:                                   RESTART
                        --------------------------------------------------------
                        max_scf:                                              50
                        max_scf_history:                                       0
                        max_diis:                                              4
                        --------------------------------------------------------
                        eps_scf:                                        1.00E-06
                        eps_scf_history:                                0.00E+00
                        eps_diis:                                       1.00E-01
                        eps_eigval:                                     1.00E-05
                        --------------------------------------------------------
                        level_shift [a.u.]:                                 0.00
                        --------------------------------------------------------
                        Outer loop SCF in use
                        No variables optimised in outer loop
                        eps_scf                                         1.00E-06
                        max_scf                                               10
                        No outer loop optimization
                        step_size                                       5.00E-01

 PW_GRID| Information for grid number                                          1
 PW_GRID| Grid distributed over                                    56 processors
 PW_GRID| Real space group dimensions                                    56    1
 PW_GRID| the grid is blocked:                                                NO
 PW_GRID| Cutoff [a.u.]                                                    150.0
 PW_GRID| spherical cutoff:                                                   NO
 PW_GRID|   Bounds   1           -148     148                Points:         297
 PW_GRID|   Bounds   2           -148     148                Points:         297
 PW_GRID|   Bounds   3            -52      52                Points:         105
 PW_GRID| Volume element (a.u.^3)  0.5682E-02     Volume (a.u.^3)     52624.6708
 PW_GRID| Grid span                                                    FULLSPACE
 PW_GRID|   Distribution                         Average         Max         Min
 PW_GRID|   G-Vectors                           165391.9      165429      165132
 PW_GRID|   G-Rays                                 556.9         557         556
 PW_GRID|   Real Space Points                   165391.9      187110      155925

 PW_GRID| Information for grid number                                          2
 PW_GRID| Grid distributed over                                    56 processors
 PW_GRID| Real space group dimensions                                    56    1
 PW_GRID| the grid is blocked:                                                NO
 PW_GRID| Cutoff [a.u.]                                                     50.0
 PW_GRID| spherical cutoff:                                                   NO
 PW_GRID|   Bounds   1            -84      83                Points:         168
 PW_GRID|   Bounds   2            -84      83                Points:         168
 PW_GRID|   Bounds   3            -31      31                Points:          63
 PW_GRID| Volume element (a.u.^3)  0.2960E-01     Volume (a.u.^3)     52624.6708
 PW_GRID| Grid span                                                    FULLSPACE
 PW_GRID|   Distribution                         Average         Max         Min
 PW_GRID|   G-Vectors                            31752.0       32760       30744
 PW_GRID|   G-Rays                                 189.0         195         183
 PW_GRID|   Real Space Points                    31752.0       31752       31752

 PW_GRID| Information for grid number                                          3
 PW_GRID| Grid distributed over                                    56 processors
 PW_GRID| Real space group dimensions                                    56    1
 PW_GRID| the grid is blocked:                                                NO
 PW_GRID| Cutoff [a.u.]                                                     16.7
 PW_GRID| spherical cutoff:                                                   NO
 PW_GRID|   Bounds   1            -49      49                Points:          99
 PW_GRID|   Bounds   2            -49      49                Points:          99
 PW_GRID|   Bounds   3            -17      17                Points:          35
 PW_GRID| Volume element (a.u.^3)  0.1534         Volume (a.u.^3)     52624.6708
 PW_GRID| Grid span                                                    FULLSPACE
 PW_GRID|   Distribution                         Average         Max         Min
 PW_GRID|   G-Vectors                             6125.6        6930        5148
 PW_GRID|   G-Rays                                  61.9          70          52
 PW_GRID|   Real Space Points                     6125.6        6930        3465

 PW_GRID| Information for grid number                                          4
 PW_GRID| Grid distributed over                                    56 processors
 PW_GRID| Real space group dimensions                                     7    8
 PW_GRID| the grid is blocked:                                                NO
 PW_GRID| Cutoff [a.u.]                                                      5.6
 PW_GRID| spherical cutoff:                                                   NO
 PW_GRID|   Bounds   1            -27      27                Points:          55
 PW_GRID|   Bounds   2            -27      27                Points:          55
 PW_GRID|   Bounds   3            -10      10                Points:          21
 PW_GRID| Volume element (a.u.^3)  0.8284         Volume (a.u.^3)     52624.6708
 PW_GRID| Grid span                                                    FULLSPACE
 PW_GRID|   Distribution                         Average         Max         Min
 PW_GRID|   G-Vectors                             1134.4        1430         770
 PW_GRID|   G-Rays                                  20.6          26          14
 PW_GRID|   Real Space Points                     1134.4        1176         882

 POISSON| Solver                                                        PERIODIC
 POISSON| Periodicity                                                        XYZ

 RS_GRID| Information for grid number                                          1
 RS_GRID|   Bounds   1           -148     148                Points:         297
 RS_GRID|   Bounds   2           -148     148                Points:         297
 RS_GRID|   Bounds   3            -52      52                Points:         105
 RS_GRID| Real space distribution over                                  7 groups
 RS_GRID| Real space distribution along direction                              1
 RS_GRID| Border size                                                         23
 RS_GRID| Real space distribution over                                  8 groups
 RS_GRID| Real space distribution along direction                              2
 RS_GRID| Border size                                                         23
 RS_GRID|   Distribution                         Average         Max         Min
 RS_GRID|   Planes                                  88.4          89          88
 RS_GRID|   Distribution                         Average         Max         Min
 RS_GRID|   Planes                                  83.1          84          83

 RS_GRID| Information for grid number                                          2
 RS_GRID|   Bounds   1            -84      83                Points:         168
 RS_GRID|   Bounds   2            -84      83                Points:         168
 RS_GRID|   Bounds   3            -31      31                Points:          63
 RS_GRID| Real space distribution over                                  7 groups
 RS_GRID| Real space distribution along direction                              1
 RS_GRID| Border size                                                         25
 RS_GRID| Real space distribution over                                  8 groups
 RS_GRID| Real space distribution along direction                              2
 RS_GRID| Border size                                                         25
 RS_GRID|   Distribution                         Average         Max         Min
 RS_GRID|   Planes                                  74.0          74          74
 RS_GRID|   Distribution                         Average         Max         Min
 RS_GRID|   Planes                                  71.0          71          71

 RS_GRID| Information for grid number                                          3
 RS_GRID|   Bounds   1            -49      49                Points:          99
 RS_GRID|   Bounds   2            -49      49                Points:          99
 RS_GRID|   Bounds   3            -17      17                Points:          35
 RS_GRID| Real space fully replicated
 RS_GRID| Group size                                                           1

 RS_GRID| Information for grid number                                          4
 RS_GRID|   Bounds   1            -27      27                Points:          55
 RS_GRID|   Bounds   2            -27      27                Points:          55
 RS_GRID|   Bounds   3            -10      10                Points:          21
 RS_GRID| Real space fully replicated
 RS_GRID| Group size                                                           1

 DISTRIBUTION OF THE PARTICLES (ROWS)
              Process row      Number of particles         Number of matrix rows
                        0                       73                            -1
                        1                       75                            -1
                        2                       74                            -1
                        3                       70                            -1
                      Sum                      292                            -1

 DISTRIBUTION OF THE PARTICLES (COLUMNS)
              Process col      Number of particles      Number of matrix columns
                        0                       20                            -1
                        1                       22                            -1
                        2                       20                            -1
                        3                       22                            -1
                        4                       21                            -1
                        5                       21                            -1
                        6                       22                            -1
                        7                       21                            -1
                        8                       22                            -1
                        9                       21                            -1
                       10                       20                            -1
                       11                       18                            -1
                       12                       22                            -1
                       13                       20                            -1
                      Sum                      292                            -1

 MD| Molecular Dynamics Protocol
 MD| Ensemble Type                                                         NPT_F
 MD| Number of Time Steps                                                   1000
 MD| Variable Time Step is activated
 MD| Max. Time Step [fs]                                                    0.50
 MD| Max. atomic displacement permitted [A]                               1.0000
 MD| Temperature [K]                                                      400.00
 MD| Temperature tolerance [K]                                              0.00
 MD| Pressure [Bar]                                                         1.00
 MD| Barostat time constant [  fs]                                        500.00
 MD| Print MD information every                                        1 step(s)
 MD| File type     Print frequency[steps]                             File names
 MD| Coordinates            1                                    aiida-pos-1.xyz
 MD| Simulation Cel         1                                       aiida-1.cell
 MD| Velocities             1                                    aiida-vel-1.xyz
 MD| Energies               1                                       aiida-1.ener
 MD| Dump                   1                                    aiida-1.restart

 ROT| Rotational Analysis Info
 ROT| Principal axes and moments of inertia in atomic units:
 ROT|                                1                 2                 3
 ROT| EIGENVALUES            0.980557766E+09   0.124561428E+10   0.196893718E+10
 ROT|      X                     0.999462022      -0.032796601      -0.000223005
 ROT|      Y                     0.032791707       0.999140441       0.025359081
 ROT|      Z                    -0.000608879      -0.025352751       0.999678382
 ROT| Numer of Rotovibrational vectors:     6

 Calculation of degrees of freedom
                                                      Number of atoms:       292
                                 Number of Intramolecular constraints:         0
                                 Number of Intermolecular constraints:         0
                                  Invariants(translation + rotations):         3
                                                   Degrees of freedom:       873


 Restraints Information
                                  Number of Intramolecular restraints:         0
                                  Number of Intermolecular restraints:         0

 THERMOSTAT| Thermostat Info for PARTICLES
 THERMOSTAT| Type of thermostat            Canonical Sampling/Velocity Rescaling
 THERMOSTAT| CSVR time constant [  fs]                                      0.10
 THERMOSTAT| Initial Kinetic Energy                                     0.000000
 THERMOSTAT| End of Thermostat Info for PARTICLES


 THERMOSTAT| Thermostat Info for BAROSTAT
 THERMOSTAT| Type of thermostat            Canonical Sampling/Velocity Rescaling
 THERMOSTAT| CSVR time constant [  fs]                                      0.10
 THERMOSTAT| Initial Kinetic Energy                                     0.000000
 THERMOSTAT| End of Thermostat Info for BAROSTAT

 ************************** Velocities initialization **************************
 Initial Temperature                                                    400.00 K
 COM velocity:           -0.000000000000      0.000000000000      0.000000000000
 *******************************************************************************


 DISTRIBUTION OF THE NEIGHBOR LISTS
              Total number of particle pairs:                              33284
              Total number of matrix elements:                           3069348
              Average number of particle pairs:                              595
              Maximum number of particle pairs:                              703
              Average number of matrix element:                            54810
              Maximum number of matrix elements:                           64649


 DISTRIBUTION OF THE OVERLAP MATRIX
              Number  of non-zero blocks:                                  19772
              Percentage non-zero blocks:                                  46.22
              Average number of blocks per CPU:                              354
              Maximum number of blocks per CPU:                              416
              Average number of matrix elements per CPU:                   33106
              Maximum number of matrix elements per CPU:                   37074

 Number of electrons:                                                        848
 Number of occupied orbitals:                                                424
 Number of molecular orbitals:                                               424

 Number of orbital functions:                                               2900
 Number of independent orbital functions:                                   2900

 Extrapolation method: initial_guess


 SCF WAVEFUNCTION OPTIMIZATION

  ----------------------------------- OT ---------------------------------------
  Minimizer      : DIIS                : direct inversion
                                         in the iterative subspace
                                         using   7 DIIS vectors
                                         safer DIIS on
  Preconditioner : FULL_ALL            : diagonalization, state selective
  Precond_solver : DEFAULT
  stepsize       :    0.15000000                  energy_gap     :    0.08000000
  eps_taylor     :   0.10000E-15                  max_taylor     :             4
  ----------------------------------- OT ---------------------------------------

  Step     Update method      Time    Convergence         Total energy    Change
  ------------------------------------------------------------------------------
     1 OT DIIS     0.15E+00    2.0     0.00000509     -1158.6351208032 -1.16E+03
     2 OT DIIS     0.15E+00    1.1     0.00000229     -1158.6351240274 -3.22E-06
     3 OT DIIS     0.15E+00    1.2     0.00000224     -1158.6351244926 -4.65E-07
     4 OT DIIS     0.15E+00    1.2     0.00000050     -1158.6351247008 -2.08E-07

  *** SCF run converged in     4 steps ***


  Electronic density on regular grids:       -847.9999999616        0.0000000384
  Core density on regular grids:              847.9999999349       -0.0000000651
  Total charge density on r-space grids:       -0.0000000268
  Total charge density g-space grids:          -0.0000000268

  Overlap energy of the core charge distribution:               0.00006841865278
  Self energy of the core charge distribution:              -2742.52428481879269
  Core Hamiltonian energy:                                    855.89769250609640
  Hartree energy:                                            1094.32477149315218
  Exchange-correlation energy:                               -365.79834738632007
  Dispersion energy:                                           -0.53502491356735

  Total energy:                                             -1158.63512470077853

  outer SCF iter =    1 RMS gradient =   0.50E-06 energy =      -1158.6351247008
  outer SCF loop converged in   1 iterations or    4 steps


 ENERGY| Total FORCE_EVAL ( QS ) energy (a.u.):            -1158.635124710241143


 MD_ENERGIES| Initialization proceeding


 ******************************** GO CP2K GO! **********************************
 INITIAL POTENTIAL ENERGY[hartree]     =                     -0.115863512471E+04
 INITIAL KINETIC ENERGY[hartree]       =                      0.552925958938E+00
 INITIAL TEMPERATURE[K]                =                                 400.000
 INITIAL BAROSTAT TEMP[K]              =                      0.400000000000E+03
 INITIAL PRESSURE[bar]                 =                      0.210271501296E+04
 INITIAL VOLUME[bohr^3]                =                      0.526246708181E+05
 INITIAL CELL LNTHS[bohr]   =      0.5238269E+02   0.5236784E+02   0.1918390E+02
 INITIAL CELL ANGLS[deg]    =      0.9000000E+02   0.9000000E+02   0.9000000E+02
 ******************************** GO CP2K GO! **********************************

 -------------------------------------------------------------------------------
 ----                             MULTIGRID INFO                            ----
 -------------------------------------------------------------------------------
 count for grid        1:         664820          cutoff [a.u.]          150.00
 count for grid        2:         255872          cutoff [a.u.]           50.00
 count for grid        3:         170952          cutoff [a.u.]           16.67
 count for grid        4:          40520          cutoff [a.u.]            5.56
 total gridlevel count  :        1132164

 PW_GRID| Information for grid number                                          5
 PW_GRID| Grid distributed over                                    56 processors
 PW_GRID| Real space group dimensions                                    56    1
 PW_GRID| the grid is blocked:                                                NO
 PW_GRID| Cutoff [a.u.]                                                    150.0
 PW_GRID| spherical cutoff:                                                   NO
 PW_GRID|   Bounds   1           -148     148                Points:         297
 PW_GRID|   Bounds   2           -148     148                Points:         297
 PW_GRID|   Bounds   3            -52      52                Points:         105
 PW_GRID| Volume element (a.u.^3)  0.5682E-02     Volume (a.u.^3)     52630.8117
 PW_GRID| Grid span                                                    FULLSPACE
 PW_GRID|   Distribution                         Average         Max         Min
 PW_GRID|   G-Vectors                           165391.9      165429      165132
 PW_GRID|   G-Rays                                 556.9         557         556
 PW_GRID|   Real Space Points                   165391.9      187110      155925

 PW_GRID| Information for grid number                                          6
 PW_GRID| Grid distributed over                                    56 processors
 PW_GRID| Real space group dimensions                                    56    1
 PW_GRID| the grid is blocked:                                                NO
 PW_GRID| Cutoff [a.u.]                                                     50.0
 PW_GRID| spherical cutoff:                                                   NO
 PW_GRID|   Bounds   1            -84      83                Points:         168
 PW_GRID|   Bounds   2            -84      83                Points:         168
 PW_GRID|   Bounds   3            -31      31                Points:          63
 PW_GRID| Volume element (a.u.^3)  0.2960E-01     Volume (a.u.^3)     52630.8117
 PW_GRID| Grid span                                                    FULLSPACE
 PW_GRID|   Distribution                         Average         Max         Min
 PW_GRID|   G-Vectors                            31752.0       32760       30744
 PW_GRID|   G-Rays                                 189.0         195         183
 PW_GRID|   Real Space Points                    31752.0       31752       31752

 PW_GRID| Information for grid number                                          7
[...]
 flops     5 x    32 x    32          14924349440     100.0%      0.0%      0.0%
 flops   128 x     8 x    90          15636971520     100.0%      0.0%      0.0%
 flops   104 x     8 x   106          18704641280     100.0%      0.0%      0.0%
 flops   104 x     8 x   111          19586935680     100.0%      0.0%      0.0%
 flops   128 x     8 x   106          23021096960     100.0%      0.0%      0.0%
 flops    96 x     8 x    90          23455457280     100.0%      0.0%      0.0%
 flops   128 x     8 x   111          24106997760     100.0%      0.0%      0.0%
 flops    13 x     5 x     8          34219131440     100.0%      0.0%      0.0%
 flops     5 x    13 x     8          34382667280     100.0%      0.0%      0.0%
 flops    96 x     8 x   106          34531645440     100.0%      0.0%      0.0%
 flops    96 x     8 x   111          36160496640     100.0%      0.0%      0.0%
 flops   718 x     8 x    90          50066542080     100.0%      0.0%      0.0%
 flops   725 x     8 x    90          50554656000     100.0%      0.0%      0.0%
 flops   727 x     8 x    90          50694117120     100.0%      0.0%      0.0%
 flops   730 x     8 x    90          50903308800     100.0%      0.0%      0.0%
 flops     5 x     8 x     5          56769232800     100.0%      0.0%      0.0%
 flops    13 x    32 x    32          62362460160     100.0%      0.0%      0.0%
 flops   718 x     8 x   106          73709075840     100.0%      0.0%      0.0%
 flops   725 x     8 x   106          74427688000     100.0%      0.0%      0.0%
 flops   727 x     8 x   106          74633005760     100.0%      0.0%      0.0%
 flops   730 x     8 x   106          74940982400     100.0%      0.0%      0.0%
 flops   718 x     8 x   111          77185919040     100.0%      0.0%      0.0%
 flops   725 x     8 x   111          77938428000     100.0%      0.0%      0.0%
 flops   727 x     8 x   111          78153430560     100.0%      0.0%      0.0%
 flops   730 x     8 x   111          78475934400     100.0%      0.0%      0.0%
 flops   718 x     8 x    32         120717742080     100.0%      0.0%      0.0%
 flops   718 x    32 x     8         120717742080     100.0%      0.0%      0.0%
 flops   725 x    32 x     8         121894656000     100.0%      0.0%      0.0%
 flops   725 x     8 x    32         121894656000     100.0%      0.0%      0.0%
 flops   727 x     8 x    32         122230917120     100.0%      0.0%      0.0%
 flops   727 x    32 x     8         122230917120     100.0%      0.0%      0.0%
 flops   730 x     8 x    32         122735308800     100.0%      0.0%      0.0%
 flops   730 x    32 x     8         122735308800     100.0%      0.0%      0.0%
 flops    13 x    13 x     8         129789782720     100.0%      0.0%      0.0%
 flops     5 x     8 x    13         205209547920     100.0%      0.0%      0.0%
 flops    13 x     8 x     5         205209547920     100.0%      0.0%      0.0%
 flops   104 x    32 x    32         344190386176     100.0%      0.0%      0.0%
 flops   128 x    32 x    32         423618936832     100.0%      0.0%      0.0%
 flops     5 x     5 x    32         501641067200     100.0%      0.0%      0.0%
 flops    96 x    32 x    32         635428405248     100.0%      0.0%      0.0%
 flops   104 x    32 x    90         660662046720     100.0%      0.0%      0.0%
 flops    13 x     8 x    13         766218684192     100.0%      0.0%      0.0%
 flops   128 x    32 x    90         813122519040     100.0%      0.0%      0.0%
 flops   104 x    32 x   106         972641346560     100.0%      0.0%      0.0%
 flops   104 x    32 x   111        1018520655360     100.0%      0.0%      0.0%
 flops   128 x    32 x   106        1197097041920     100.0%      0.0%      0.0%
 flops    96 x    32 x    90        1219683778560     100.0%      0.0%      0.0%
 flops   128 x    32 x   111        1253563883520     100.0%      0.0%      0.0%
 flops    13 x     5 x    32        1779394834880     100.0%      0.0%      0.0%
 flops     5 x    13 x    32        1787898698560     100.0%      0.0%      0.0%
 flops    96 x    32 x   106        1795645562880     100.0%      0.0%      0.0%
 flops    96 x    32 x   111        1880345825280     100.0%      0.0%      0.0%
 flops   718 x    32 x    90        2603460188160     100.0%      0.0%      0.0%
 flops   725 x    32 x    90        2628842112000     100.0%      0.0%      0.0%
 flops   727 x    32 x    90        2636094090240     100.0%      0.0%      0.0%
 flops   730 x    32 x    90        2646972057600     100.0%      0.0%      0.0%
 flops     5 x    32 x     5        2952000105600     100.0%      0.0%      0.0%
 flops   718 x    32 x   106        3832871943680     100.0%      0.0%      0.0%
 flops   725 x    32 x   106        3870239776000     100.0%      0.0%      0.0%
 flops   727 x    32 x   106        3880916299520     100.0%      0.0%      0.0%
 flops   730 x    32 x   106        3896931084800     100.0%      0.0%      0.0%
 flops   718 x    32 x   111        4013667790080     100.0%      0.0%      0.0%
 flops   725 x    32 x   111        4052798256000     100.0%      0.0%      0.0%
 flops   727 x    32 x   111        4063978389120     100.0%      0.0%      0.0%
 flops   730 x    32 x   111        4080748588800     100.0%      0.0%      0.0%
 flops   718 x    32 x    32        6277322588160     100.0%      0.0%      0.0%
 flops   725 x    32 x    32        6338522112000     100.0%      0.0%      0.0%
 flops   727 x    32 x    32        6356007690240     100.0%      0.0%      0.0%
 flops   730 x    32 x    32        6382236057600     100.0%      0.0%      0.0%
 flops    13 x    13 x    32        6749068701440     100.0%      0.0%      0.0%
 flops     5 x    32 x    13       10670896491840     100.0%      0.0%      0.0%
 flops    13 x    32 x     5       10670896491840     100.0%      0.0%      0.0%
 flops    13 x    32 x    13       39843371577984     100.0%      0.0%      0.0%
 flops inhomo. stacks              74868420763136     100.0%      0.0%      0.0%
 flops total                       233.177438E+12     100.0%      0.0%      0.0%
 flops max/rank                      4.512474E+12     100.0%      0.0%      0.0%
 matmuls inhomo. stacks                  26118960     100.0%      0.0%      0.0%
 matmuls total                        13495651918     100.0%      0.0%      0.0%
 number of processed stacks             232537200     100.0%      0.0%      0.0%
 average stack size                                    58.0       0.0       0.0
 marketing flops                   339.360197E+12
 -------------------------------------------------------------------------------
 # multiplications                          98294
 max memory usage/rank             452.554752E+06
 # max total images/rank                        7
 # max 3D layers                                1
 # MPI messages exchanged               644022288
 MPI messages size (bytes):
  total size                        34.221362E+12
  min size                           0.000000E+00
  max size                         835.120000E+03
  average size                      53.136922E+03
 MPI breakdown and total messages size (bytes):
             size <=      128           149391970                        0
       128 < size <=     8192           108596787             781475015360
      8192 < size <=    32768           257846264            6732008555584
     32768 < size <=   131072            57041218            3930610308352
    131072 < size <=  4194304            71146049           22825797679152
   4194304 < size <= 16777216                   0                        0
  16777216 < size                               0                        0
 -------------------------------------------------------------------------------

 *** WARNING in dbcsr/mm/dbcsr_mm.F:267 :: Using a non-square number of ***
 *** MPI ranks might lead to poor performance.                          ***
 *** Used ranks: 56                                                     ***
 *** Suggested: 49 121                                                  ***

 -------------------------------------------------------------------------------

 MEMORY| Estimated peak process memory [MiB]                                 432

 -------------------------------------------------------------------------------
 ----                             MULTIGRID INFO                            ----
 -------------------------------------------------------------------------------
 count for grid        1:         667613          cutoff [a.u.]          150.00
 count for grid        2:         257912          cutoff [a.u.]           50.00
 count for grid        3:         172308          cutoff [a.u.]           16.67
 count for grid        4:          41314          cutoff [a.u.]            5.56
 total gridlevel count  :        1139147

 -------------------------------------------------------------------------------
 -                                                                             -
 -                         MESSAGE PASSING PERFORMANCE                         -
 -                                                                             -
 -------------------------------------------------------------------------------

 ROUTINE             CALLS      AVE VOLUME [Bytes]
 MP_Group            22009
 MP_Bcast            29893                  22525.
 MP_Allreduce       441559                   2109.
 MP_Sync              7007
 MP_Alltoall        728713                1120638.
 MP_SendRecv        220220                   1812.
 MP_ISendRecv      1331660                  33833.
 MP_Wait          14374170
 MP_comm_split        3003
 MP_ISend         24159652                  32388.
 MP_IRecv         24259392                  32032.
 MP_Recv             13013                 719200.
 MP_Memory        16098612
 -------------------------------------------------------------------------------


 -------------------------------------------------------------------------------
 -                                                                             -
 -                           R E F E R E N C E S                               -
 -                                                                             -
 -------------------------------------------------------------------------------

 CP2K version 5.1, the CP2K developers group (2017).
 CP2K is freely available from https://www.cp2k.org/ .

 Schuett, Ole; Messmer, Peter; Hutter, Juerg; VandeVondele, Joost.
 Electronic Structure Calculations on Graphics Processing Units, John Wiley & Sons, Ltd, 173-190 (2016).
 GPU-Accelerated Sparse Matrix-Matrix Multiplication for Linear Scaling Density Functional Theory.
 http://dx.doi.org/10.1002/9781118670712.ch8


 Borstnik, U; VandeVondele, J; Weber, V; Hutter, J.
 PARALLEL COMPUTING, 40 (5-6), 47-58 (2014).
 Sparse matrix multiplication: The distributed block-compressed sparse
 row library.
 http://dx.doi.org/10.1016/j.parco.2014.03.012


 Hutter, J; Iannuzzi, M; Schiffmann, F; VandeVondele, J.
 WILEY INTERDISCIPLINARY REVIEWS-COMPUTATIONAL MOLECULAR SCIENCE, 4 (1), 15-25 (2014).
 CP2K: atomistic simulations of condensed matter systems.
 http://dx.doi.org/10.1002/wcms.1159


 Grimme, S; Ehrlich, S; Goerigk, L.
 JOURNAL OF COMPUTATIONAL CHEMISTRY, 32, 1456 (2011).
 Effect of the damping function in dispersion corrected density functional theory.
 http://dx.doi.org/10.1002/jcc.21759


 Grimme, S; Antony, J; Ehrlich, S; Krieg, H.
 JOURNAL OF CHEMICAL PHYSICS, 132 (15), 154104 (2010).
 A consistent and accurate ab initio parametrization of density
 functional dispersion correction (DFT-D) for the 94 elements H-Pu.
 http://dx.doi.org/10.1063/1.3382344


 VandeVondele, J; Hutter, J.
 JOURNAL OF CHEMICAL PHYSICS, 127 (11), 114105 (2007).
 Gaussian basis sets for accurate calculations on molecular systems in
 gas and condensed phases.
 http://dx.doi.org/10.1063/1.2770708


 Bussi, G; Donadio, D; Parrinello, M.
 JOURNAL OF CHEMICAL PHYSICS, 126 (1), 014101 (2007).
 Canonical sampling through velocity rescaling.
 http://dx.doi.org/10.1063/1.2408420


 Krack, M.
 THEORETICAL CHEMISTRY ACCOUNTS, 114 (1-3), 145-152 (2005).
 Pseudopotentials for H to Kr optimized for gradient-corrected
 exchange-correlation functionals.
 http://dx.doi.org/10.1007/s00214-005-0655-y


 VandeVondele, J; Krack, M; Mohamed, F; Parrinello, M; Chassaing, T;
 Hutter, J. COMPUTER PHYSICS COMMUNICATIONS, 167 (2), 103-128 (2005).
 QUICKSTEP: Fast and accurate density functional calculations using a
 mixed Gaussian and plane waves approach.
 http://dx.doi.org/10.1016/j.cpc.2004.12.014


 Frigo, M; Johnson, SG.
 PROCEEDINGS OF THE IEEE, 93 (2), 216-231 (2005).
 The design and implementation of FFTW3.
 http://dx.doi.org/10.1109/JPROC.2004.840301


 Kolafa, J.
 JOURNAL OF COMPUTATIONAL CHEMISTRY, 25 (3), 335-342 (2004).
 Time-reversible always stable predictor-corrector method for molecular dynamics of polarizable molecules.
 http://dx.doi.org/10.1002/jcc.10385


 VandeVondele, J; Hutter, J.
 JOURNAL OF CHEMICAL PHYSICS, 118 (10), 4365-4369 (2003).
 An efficient orbital transformation method for electronic structure
 calculations.
 http://dx.doi.org/10.1063/1.1543154


 Hartwigsen, C; Goedecker, S; Hutter, J.
 PHYSICAL REVIEW B, 58 (7), 3641-3662 (1998).
 Relativistic separable dual-space Gaussian pseudopotentials from H to Rn.
 http://dx.doi.org/10.1103/PhysRevB.58.3641


 Lippert, G; Hutter, J; Parrinello, M.
 MOLECULAR PHYSICS, 92 (3), 477-487 (1997).
 A hybrid Gaussian and plane wave density functional scheme.
 http://dx.doi.org/10.1080/002689797170220


 Perdew, JP; Burke, K; Ernzerhof, M.
 PHYSICAL REVIEW LETTERS, 77 (18), 3865-3868 (1996).
 Generalized gradient approximation made simple.
 http://dx.doi.org/10.1103/PhysRevLett.77.3865


 Goedecker, S; Teter, M; Hutter, J.
 PHYSICAL REVIEW B, 54 (3), 1703-1710 (1996).
 Separable dual-space Gaussian pseudopotentials.
 http://dx.doi.org/10.1103/PhysRevB.54.1703


 -------------------------------------------------------------------------------
 -                                                                             -
 -                                T I M I N G                                  -
 -                                                                             -
 -------------------------------------------------------------------------------
 SUBROUTINE                       CALLS  ASD         SELF TIME        TOTAL TIME
                                MAXIMUM       AVERAGE  MAXIMUM  AVERAGE  MAXIMUM
 CP2K                                 1  1.0    0.075    0.095 8887.798 8887.803
 qs_mol_dyn_low                       1  2.0    0.062    0.078 8887.086 8887.096
 qs_forces                         1001  4.0    0.152    0.164 8875.680 8875.691
 velocity_verlet                   1000  3.0    0.167    0.193 8874.024 8874.329
 qs_energies                       1001  5.0    0.071    0.090 7675.175 7675.622
 scf_env_do_scf                    1001  6.0    0.068    0.143 6981.434 6981.476
 scf_env_do_scf_inner_loop         5052  7.0    0.177    0.355 5349.157 5360.612
 rebuild_ks_matrix                 6053  8.5    0.018    0.022 4211.998 4214.449
 qs_ks_build_kohn_sham_matrix      6053  9.5    0.678    0.961 4211.979 4214.429
 qs_ks_update_qs_env               6053  8.0    0.041    0.048 3220.552 3222.532
 sum_up_and_integrate              6053 10.5    7.395    8.287 2501.704 2503.556
 integrate_v_rspace                6053 11.5 2060.262 2098.796 2494.297 2496.554
 qs_rho_update_rho                 6053  8.2    0.036    0.047 2453.347 2456.050
 calculate_rho_elec                6053  9.2 1924.442 1967.730 2453.311 2456.013
 pw_transfer                     116008 12.3    7.115    8.218 1592.491 1627.789
 init_scf_loop                     1001  7.0    0.026    0.035 1619.056 1619.196
 fft_wrap_pw1pw2                 103902 13.4    0.772    0.940 1571.664 1606.762
 fft_wrap_pw1pw2_150              67584 14.4   91.553   97.147 1513.946 1552.971
 qs_vxc_create                     6053 10.5    0.107    0.128 1385.745 1390.967
 xc_vxc_pw_create                  6053 11.5   62.758   71.229 1385.638 1390.865
 fft3d_ps                        103902 15.4  721.524  742.142 1300.490 1337.277
 qs_ks_update_qs_env_forces        1001  5.0    0.005    0.006  993.041  993.514
 prepare_preconditioner            1001  8.0    0.006    0.007  957.165  957.582
 dbcsr_multiply_generic           98294 12.6    6.990    7.220  945.762  955.555
 make_preconditioner               1001  9.0    0.018    0.021  895.793  896.041
 make_full_all                     1001 10.0    0.223    0.244  835.245  835.495
 multiply_cannon                  98294 13.6   29.775   31.192  722.440  748.250
 xc_rho_set_and_dset_create        6053 12.5    5.220    5.684  692.152  728.399
 qs_scf_new_mos                    5052  8.0    0.032    0.045  711.873  714.562
 qs_scf_loop_do_ot                 5052  9.0    0.084    0.189  711.841  714.532
 ot_scf_mini                       5052 10.0    0.241    0.265  668.810  670.886
 cp_fm_syevd                       3003 11.3   90.302  569.288  570.527  570.886
 cp_fm_syevd_base                  3003 12.1  477.479  558.042  477.479  558.042
 init_scf_run                      1001  6.0    0.021    0.068  547.824  547.847
 scf_env_initial_rho_setup         1001  7.0    0.012    0.038  547.799  547.820
 wfi_extrapolate                   1001  8.0    0.110    0.223  545.980  546.003
 density_rs2pw                     6053 10.2    0.273    0.300  481.147  514.885
 ot_mini                           5052 11.0    0.035    0.041  507.491  510.062
 mp_alltoall_z22v                103902 17.4  426.633  496.037  426.633  496.037
 mp_waitall_1                   ******* 15.7  308.407  482.365  308.407  482.365
 rs_pw_transfer                   50426 12.2    0.472    0.556  382.542  412.721
 multiply_cannon_metrocomm3     1376116 14.6    3.584    3.681  122.992  373.606
 potential_pw2rs                   6053 12.5    0.549    0.582  344.904  347.015
 yz_to_x                          45587 16.0   54.364   62.777  279.968  320.809
 x_to_yz                          50639 16.7   93.106  111.202  293.895  317.795
 multiply_cannon_multrec        2752232 14.6  263.530  309.734  264.231  310.456
 apply_preconditioner_dbcsr        6053 13.0    0.036    0.088  297.697  303.721
 apply_all                         6053 14.0    0.372    0.401  297.661  303.695
 xc_functional_eval                6053 13.5    0.043    0.053  238.214  277.622
 pbe_lda_eval                      6053 14.5  238.171  277.587  238.171  277.587
 ot_diis_step                      5052 12.0    0.169    0.188  265.811  265.819
 qs_ot_get_derivative              5052 12.0    0.063    0.069  240.574  242.715
 multiply_cannon_metrocomm1     1376116 14.6    4.378    4.736  132.596  192.751

 -------------------------------------------------------------------------------
 ----                             MULTIGRID INFO                            ----
 -------------------------------------------------------------------------------
 count for grid        1:         664347          cutoff [a.u.]          150.00
 count for grid        2:         255478          cutoff [a.u.]           50.00
 count for grid
 -------------------------------------------------------------------------------

 The number of warnings for this run is : 1

 -------------------------------------------------------------------------------
  **** **** ******  **  PROGRAM ENDED AT                 2019-02-05 21:17:45.023
 ***** ** ***  *** **   PROGRAM RAN ON                                      g118
 **    ****   ******    PROGRAM RAN BY                                    ongari
 ***** **    ** ** **   PROGRAM PROCESS ID                                 20013
  **** **  *******  **  PROGRAM STOPPED IN /scratch/ongari/proj33_corecofs_testC
                                           ELLOPT/8_NPT_F/1_3d_from_09000Ncellop
                                           t/NPT_F_PCON-500
