 DBCSR| Multiplication driver                                               BLAS
 DBCSR| Multrec recursion limit                                              512
 DBCSR| Multiplication stack size                                           1000
 DBCSR| Maximum elements for images                                    UNLIMITED
 DBCSR| Multiplicative factor virtual images                                   1
 DBCSR| Multiplication size stacks                                             3
 DBCSR| Number of 3D layers                                               SINGLE
 DBCSR| Use MPI memory allocation                                              T
 DBCSR| Use RMA algorithm                                                      F
 DBCSR| Use Communication thread                                               T
 DBCSR| Communication thread load                                             87


  **** **** ******  **  PROGRAM STARTED AT               2018-10-11 15:15:53.420
 ***** ** ***  *** **   PROGRAM STARTED ON                                  g106
 **    ****   ******    PROGRAM STARTED BY                                ongari
 ***** **    ** ** **   PROGRAM PROCESS ID                                  9709
  **** **  *******  **  PROGRAM STARTED IN /scratch/ongari/proj44_studycases/CEL
                                           LOPT/4_CELL_OPT_bfgs

 CP2K| version string:                                          CP2K version 5.1
 CP2K| source code revision number:                                    svn:18091
 CP2K| cp2kflags: libint fftw3 pexsi parallel mpi3 scalapack libderiv_max_am1=5 
 CP2K|            libint_max_am=6
 CP2K| is freely available from                            https://www.cp2k.org/
 CP2K| Program compiled at                          Thu Jul 5 10:57:58 CEST 2018
 CP2K| Program compiled on                                                  g005
 CP2K| Program compiled for                  linux-rhel7-x86_S6g1_Mellanox-intel
 CP2K| Data directory path    /dev/shm/scitasbuild/spack-stage/spack-stage-Kdd_n
 CP2K| Input file name                                           cp2k_energy.inp
 
 GLOBAL| Force Environment number                                              1
 GLOBAL| Basis set file name            /scratch/ongari/0_LIBRARIES/0_cp2k/BASIS
 GLOBAL| Potential file name            /scratch/ongari/0_LIBRARIES/0_cp2k/GTH_P
 GLOBAL| MM Potential file name                                     MM_POTENTIAL
 GLOBAL| Coordinate file name                                      __STD_INPUT__
 GLOBAL| Method name                                                        CP2K
 GLOBAL| Project name                                                       cp2k
 GLOBAL| Preferred FFT library                                             FFTW3
 GLOBAL| Preferred diagonalization lib.                                       SL
 GLOBAL| Run type                                                       CELL_OPT
 GLOBAL| All-to-all communication in single precision                          F
 GLOBAL| FFTs using library dependent lengths                                  F
 GLOBAL| Global print level                                               MEDIUM
 GLOBAL| Total number of message passing processes                            49
 GLOBAL| Number of threads for this process                                    1
 GLOBAL| This output is from process                                           0
 GLOBAL| CPU model name :  Intel(R) Xeon(R) Gold 6132 CPU @ 2.60GHz

 MEMORY| system memory details [Kb]
 MEMORY|                        rank 0           min           max       average
 MEMORY| MemTotal            197738988     197738988     197738988     197738988
 MEMORY| MemFree             180723044     180723044     181635808     181114228
 MEMORY| Buffers                  5772           996          5772          3725
 MEMORY| Cached                 240768        194840        240768        221084
 MEMORY| Slab                   594224        271284        594224        455821
 MEMORY| SReclaimable           240800         87808        240800        175232
 MEMORY| MemLikelyFree       181210384     181210384     181919452     181514270


 *** Fundamental physical constants (SI units) ***

 *** Literature: B. J. Mohr and B. N. Taylor,
 ***             CODATA recommended values of the fundamental physical
 ***             constants: 2006, Web Version 5.1
 ***             http://physics.nist.gov/constants

 Speed of light in vacuum [m/s]                             2.99792458000000E+08
 Magnetic constant or permeability of vacuum [N/A**2]       1.25663706143592E-06
 Electric constant or permittivity of vacuum [F/m]          8.85418781762039E-12
 Planck constant (h) [J*s]                                  6.62606896000000E-34
 Planck constant (h-bar) [J*s]                              1.05457162825177E-34
 Elementary charge [C]                                      1.60217648700000E-19
 Electron mass [kg]                                         9.10938215000000E-31
 Electron g factor [ ]                                     -2.00231930436220E+00
 Proton mass [kg]                                           1.67262163700000E-27
 Fine-structure constant                                    7.29735253760000E-03
 Rydberg constant [1/m]                                     1.09737315685270E+07
 Avogadro constant [1/mol]                                  6.02214179000000E+23
 Boltzmann constant [J/K]                                   1.38065040000000E-23
 Atomic mass unit [kg]                                      1.66053878200000E-27
 Bohr radius [m]                                            5.29177208590000E-11

 *** Conversion factors ***

 [u] -> [a.u.]                                              1.82288848426455E+03
 [Angstrom] -> [Bohr] = [a.u.]                              1.88972613288564E+00
 [a.u.] = [Bohr] -> [Angstrom]                              5.29177208590000E-01
 [a.u.] -> [s]                                              2.41888432650478E-17
 [a.u.] -> [fs]                                             2.41888432650478E-02
 [a.u.] -> [J]                                              4.35974393937059E-18
 [a.u.] -> [N]                                              8.23872205491840E-08
 [a.u.] -> [K]                                              3.15774647902944E+05
 [a.u.] -> [kJ/mol]                                         2.62549961709828E+03
 [a.u.] -> [kcal/mol]                                       6.27509468713739E+02
 [a.u.] -> [Pa]                                             2.94210107994716E+13
 [a.u.] -> [bar]                                            2.94210107994716E+08
 [a.u.] -> [atm]                                            2.90362800883016E+08
 [a.u.] -> [eV]                                             2.72113838565563E+01
 [a.u.] -> [Hz]                                             6.57968392072181E+15
 [a.u.] -> [1/cm] (wave numbers)                            2.19474631370540E+05
 [a.u./Bohr**2] -> [1/cm]                                   5.14048714338585E+03
 

 CELL_TOP| Volume [angstrom^3]:                                         9656.654
 CELL_TOP| Vector a [angstrom    29.287     0.000     0.000    |a| =      29.287
 CELL_TOP| Vector b [angstrom   -14.644    25.363     0.000    |b| =      29.287
 CELL_TOP| Vector c [angstrom     0.000     0.000    13.000    |c| =      13.000
 CELL_TOP| Angle (b,c), alpha [degree]:                                   90.000
 CELL_TOP| Angle (a,c), beta  [degree]:                                   90.000
 CELL_TOP| Angle (a,b), gamma [degree]:                                  120.000
 CELL_TOP| Numerically orthorhombic:                                          NO
 
 GENERATE|  Preliminary Number of Bonds generated:                             0
 GENERATE|  Achieved consistency in connectivity generation.

 CELL| Volume [angstrom^3]:                                             9656.654
 CELL| Vector a [angstrom]:      29.287     0.000     0.000    |a| =      29.287
 CELL| Vector b [angstrom]:     -14.644    25.363     0.000    |b| =      29.287
 CELL| Vector c [angstrom]:       0.000     0.000    13.000    |c| =      13.000
 CELL| Angle (b,c), alpha [degree]:                                       90.000
 CELL| Angle (a,c), beta  [degree]:                                       90.000
 CELL| Angle (a,b), gamma [degree]:                                      120.000
 CELL| Numerically orthorhombic:                                              NO

 CELL_REF| Volume [angstrom^3]:                                         9656.654
 CELL_REF| Vector a [angstrom    29.287     0.000     0.000    |a| =      29.287
 CELL_REF| Vector b [angstrom   -14.644    25.363     0.000    |b| =      29.287
 CELL_REF| Vector c [angstrom     0.000     0.000    13.000    |c| =      13.000
 CELL_REF| Angle (b,c), alpha [degree]:                                   90.000
 CELL_REF| Angle (a,c), beta  [degree]:                                   90.000
 CELL_REF| Angle (a,b), gamma [degree]:                                  120.000
 CELL_REF| Numerically orthorhombic:                                          NO

 *******************************************************************************
 *******************************************************************************
 **                                                                           **
 **     #####                         ##              ##                      **
 **    ##   ##            ##          ##              ##                      **
 **   ##     ##                       ##            ######                    **
 **   ##     ##  ##   ##  ##   #####  ##  ##   ####   ##    #####    #####    **
 **   ##     ##  ##   ##  ##  ##      ## ##   ##      ##   ##   ##  ##   ##   **
 **   ##  ## ##  ##   ##  ##  ##      ####     ###    ##   ######   ######    **
 **    ##  ###   ##   ##  ##  ##      ## ##      ##   ##   ##       ##        **
 **     #######   #####   ##   #####  ##  ##  ####    ##    #####   ##        **
 **           ##                                                    ##        **
 **                                                                           **
 **                                                ... make the atoms dance   **
 **                                                                           **
 **            Copyright (C) by CP2K developers group (2000 - 2017)           **
 **                                                                           **
 *******************************************************************************

 DFT| Spin restricted Kohn-Sham (RKS) calculation                            RKS
 DFT| Multiplicity                                                             1
 DFT| Number of spin states                                                    1
 DFT| Charge                                                                   0
 DFT| Self-interaction correction (SIC)                                       NO
 DFT| Cutoffs: density                                              1.000000E-10
 DFT|          gradient                                             1.000000E-10
 DFT|          tau                                                  1.000000E-10
 DFT|          cutoff_smoothing_range                               0.000000E+00
 DFT| XC density smoothing                                                  NONE
 DFT| XC derivatives                                                          PW
 FUNCTIONAL| ROUTINE=NEW
 FUNCTIONAL| PBE:
 FUNCTIONAL| J.P.Perdew, K.Burke, M.Ernzerhof, Phys. Rev. Letter, vol. 77, n 18,
 FUNCTIONAL|  pp. 3865-3868, (1996){spin unpolarized}                           
 vdW POTENTIAL|                                                   Pair Potential
 vdW POTENTIAL|          DFT-D3 (Version 3.1)
 vdW POTENTIAL|          Potential Form: S. Grimme et al, JCP 132: 154104 (2010)
 vdW POTENTIAL|          BJ Damping: S. Grimme et al, JCC 32: 1456 (2011)
 vdW POTENTIAL|          Cutoff Radius [Bohr]:                             20.00
 vdW POTENTIAL|          s6 Scaling Factor:                               1.0000
 vdW POTENTIAL|          a1 Damping Factor:                               0.4289
 vdW POTENTIAL|          s8 Scaling Factor:                               0.7875
 vdW POTENTIAL|          a2 Damping Factor:                               4.4407
 vdW POTENTIAL|          Cutoff for CN calculation:                   0.1000E-05

 QS| Method:                                                                 GPW
 QS| Density plane wave grid type                        NON-SPHERICAL FULLSPACE
 QS| Number of grid levels:                                                    4
 QS| Density cutoff [a.u.]:                                                300.0
 QS| Multi grid cutoff [a.u.]: 1) grid level                               300.0
 QS|                           2) grid level                               100.0
 QS|                           3) grid level                                33.3
 QS|                           4) grid level                                11.1
 QS| Grid level progression factor:                                          3.0
 QS| Relative density cutoff [a.u.]:                                        25.0
 QS| Consistent realspace mapping and integration 
 QS| Interaction thresholds: eps_pgf_orb:                                1.0E-05
 QS|                         eps_filter_matrix:                          0.0E+00
 QS|                         eps_core_charge:                            1.0E-12
 QS|                         eps_rho_gspace:                             1.0E-10
 QS|                         eps_rho_rspace:                             1.0E-10
 QS|                         eps_gvg_rspace:                             1.0E-05
 QS|                         eps_ppl:                                    1.0E-02
 QS|                         eps_ppnl:                                   1.0E-07


 ATOMIC KIND INFORMATION

  1. Atomic kind: O                                     Number of atoms:      24

     Orbital Basis Set                                        DZVP-MOLOPT-SR-GTH

       Number of orbital shell sets:                                           1
       Number of orbital shells:                                               5
       Number of primitive Cartesian functions:                                5
       Number of Cartesian basis functions:                                   14
       Number of spherical basis functions:                                   13
       Norm type:                                                              2

       Normalised Cartesian orbitals:

                        Set   Shell   Orbital            Exponent    Coefficient

                          1       1    2s               10.389228       0.396646
                                                         3.849621       0.208811
                                                         1.388401      -0.301641
                                                         0.496955      -0.274061
                                                         0.162492      -0.033677

                          1       2    3s               10.389228       0.303673
                                                         3.849621       0.240943
                                                         1.388401      -0.313066
                                                         0.496955      -0.043055
                                                         0.162492       0.213991

                          1       3    3px              10.389228      -1.530415
                                                         3.849621      -1.371928
                                                         1.388401      -0.761951
                                                         0.496955      -0.253695
                                                         0.162492      -0.035541
                          1       3    3py              10.389228      -1.530415
                                                         3.849621      -1.371928
                                                         1.388401      -0.761951
                                                         0.496955      -0.253695
                                                         0.162492      -0.035541
                          1       3    3pz              10.389228      -1.530415
                                                         3.849621      -1.371928
                                                         1.388401      -0.761951
                                                         0.496955      -0.253695
                                                         0.162492      -0.035541

                          1       4    4px              10.389228      -0.565392
                                                         3.849621      -0.038231
                                                         1.388401      -0.382373
                                                         0.496955       0.179070
                                                         0.162492       0.122714
                          1       4    4py              10.389228      -0.565392
                                                         3.849621      -0.038231
                                                         1.388401      -0.382373
                                                         0.496955       0.179070
                                                         0.162492       0.122714
                          1       4    4pz              10.389228      -0.565392
                                                         3.849621      -0.038231
                                                         1.388401      -0.382373
                                                         0.496955       0.179070
                                                         0.162492       0.122714

                          1       5    4dx2             10.389228       1.867377
                                                         3.849621       0.670994
                                                         1.388401       1.353441
                                                         0.496955       0.273538
                                                         0.162492       0.006620
                          1       5    4dxy             10.389228       3.234392
                                                         3.849621       1.162195
                                                         1.388401       2.344229
                                                         0.496955       0.473781
                                                         0.162492       0.011466
                          1       5    4dxz             10.389228       3.234392
                                                         3.849621       1.162195
                                                         1.388401       2.344229
                                                         0.496955       0.473781
                                                         0.162492       0.011466
                          1       5    4dy2             10.389228       1.867377
                                                         3.849621       0.670994
                                                         1.388401       1.353441
                                                         0.496955       0.273538
                                                         0.162492       0.006620
                          1       5    4dyz             10.389228       3.234392
                                                         3.849621       1.162195
                                                         1.388401       2.344229
                                                         0.496955       0.473781
                                                         0.162492       0.011466
                          1       5    4dz2             10.389228       1.867377
                                                         3.849621       0.670994
                                                         1.388401       1.353441
                                                         0.496955       0.273538
                                                         0.162492       0.006620

     GTH Potential information for                                       GTH-PBE

       Description:                       Goedecker-Teter-Hutter pseudopotential
                                           Goedecker et al., PRB 54, 1703 (1996)
                                          Hartwigsen et al., PRB 58, 3641 (1998)
                                                      Krack, TCA 114, 145 (2005)

       Gaussian exponent of the core charge distribution:               8.360253
       Electronic configuration (s p d ...):                               2   4

       Parameters of the local part of the GTH pseudopotential:

                          rloc        C1          C2          C3          C4
                        0.244554  -16.667215    2.487311

       Parameters of the non-local part of the GTH pseudopotential:

                   l      r(l)      h(i,j,l)

                   0    0.220956   18.337458
                   1    0.211332

  2. Atomic kind: N                                     Number of atoms:      24

     Orbital Basis Set                                        DZVP-MOLOPT-SR-GTH

       Number of orbital shell sets:                                           1
       Number of orbital shells:                                               5
       Number of primitive Cartesian functions:                                5
       Number of Cartesian basis functions:                                   14
       Number of spherical basis functions:                                   13
       Norm type:                                                              2

       Normalised Cartesian orbitals:

                        Set   Shell   Orbital            Exponent    Coefficient

                          1       1    2s                7.341988       0.360561
                                                         2.542637       0.139177
                                                         0.888575      -0.289383
                                                         0.333802      -0.182244
                                                         0.112012      -0.019197

                          1       2    3s                7.341988       0.282000
                                                         2.542637       0.177875
                                                         0.888575      -0.278381
                                                         0.333802       0.008577
                                                         0.112012       0.154176

                          1       3    3px               7.341988      -1.188719
                                                         2.542637      -0.973969
                                                         0.888575      -0.501079
                                                         0.333802      -0.144894
                                                         0.112012      -0.013986
                          1       3    3py               7.341988      -1.188719
                                                         2.542637      -0.973969
                                                         0.888575      -0.501079
                                                         0.333802      -0.144894
                                                         0.112012      -0.013986
                          1       3    3pz               7.341988      -1.188719
                                                         2.542637      -0.973969
                                                         0.888575      -0.501079
                                                         0.333802      -0.144894
                                                         0.112012      -0.013986

                          1       4    4px               7.341988      -0.094798
                                                         2.542637       0.050069
                                                         0.888575      -0.114797
                                                         0.333802       0.144793
                                                         0.112012       0.066710
                          1       4    4py               7.341988      -0.094798
                                                         2.542637       0.050069
                                                         0.888575      -0.114797
                                                         0.333802       0.144793
                                                         0.112012       0.066710
                          1       4    4pz               7.341988      -0.094798
                                                         2.542637       0.050069
                                                         0.888575      -0.114797
                                                         0.333802       0.144793
                                                         0.112012       0.066710

                          1       5    4dx2              7.341988       1.354688
                                                         2.542637       0.690378
                                                         0.888575       0.855359
                                                         0.333802       0.091746
                                                         0.112012       0.001253
                          1       5    4dxy              7.341988       2.346389
                                                         2.542637       1.195770
                                                         0.888575       1.481524
                                                         0.333802       0.158910
                                                         0.112012       0.002169
                          1       5    4dxz              7.341988       2.346389
                                                         2.542637       1.195770
                                                         0.888575       1.481524
                                                         0.333802       0.158910
                                                         0.112012       0.002169
                          1       5    4dy2              7.341988       1.354688
                                                         2.542637       0.690378
                                                         0.888575       0.855359
                                                         0.333802       0.091746
                                                         0.112012       0.001253
                          1       5    4dyz              7.341988       2.346389
                                                         2.542637       1.195770
                                                         0.888575       1.481524
                                                         0.333802       0.158910
                                                         0.112012       0.002169
                          1       5    4dz2              7.341988       1.354688
                                                         2.542637       0.690378
                                                         0.888575       0.855359
                                                         0.333802       0.091746
                                                         0.112012       0.001253

     GTH Potential information for                                       GTH-PBE

       Description:                       Goedecker-Teter-Hutter pseudopotential
                                           Goedecker et al., PRB 54, 1703 (1996)
                                          Hartwigsen et al., PRB 58, 3641 (1998)
                                                      Krack, TCA 114, 145 (2005)

       Gaussian exponent of the core charge distribution:               6.208322
       Electronic configuration (s p d ...):                               2   3

       Parameters of the local part of the GTH pseudopotential:

                          rloc        C1          C2          C3          C4
                        0.283791  -12.415226    1.868096

       Parameters of the non-local part of the GTH pseudopotential:

                   l      r(l)      h(i,j,l)

                   0    0.255405   13.630263
                   1    0.245495

  3. Atomic kind: C                                     Number of atoms:     216

     Orbital Basis Set                                        DZVP-MOLOPT-SR-GTH

       Number of orbital shell sets:                                           1
       Number of orbital shells:                                               5
       Number of primitive Cartesian functions:                                5
       Number of Cartesian basis functions:                                   14
       Number of spherical basis functions:                                   13
       Norm type:                                                              2

       Normalised Cartesian orbitals:

                        Set   Shell   Orbital            Exponent    Coefficient

                          1       1    2s                5.605331       0.322515
                                                         2.113016       0.213043
                                                         0.769911      -0.209686
                                                         0.348157      -0.219794
                                                         0.128212      -0.022789

                          1       2    3s                5.605331       0.552234
                                                         2.113016       0.082072
                                                         0.769911       0.007843
                                                         0.348157       0.136893
                                                         0.128212       0.074283

                          1       3    3px               5.605331      -0.703879
                                                         2.113016      -0.642521
                                                         0.769911      -0.374851
                                                         0.348157      -0.139743
                                                         0.128212      -0.027849
                          1       3    3py               5.605331      -0.703879
                                                         2.113016      -0.642521
                                                         0.769911      -0.374851
                                                         0.348157      -0.139743
                                                         0.128212      -0.027849
                          1       3    3pz               5.605331      -0.703879
                                                         2.113016      -0.642521
                                                         0.769911      -0.374851
                                                         0.348157      -0.139743
                                                         0.128212      -0.027849

                          1       4    4px               5.605331      -0.480376
                                                         2.113016      -0.552894
                                                         0.769911      -0.316145
                                                         0.348157       0.210505
                                                         0.128212       0.076095
                          1       4    4py               5.605331      -0.480376
                                                         2.113016      -0.552894
                                                         0.769911      -0.316145
                                                         0.348157       0.210505
                                                         0.128212       0.076095
                          1       4    4pz               5.605331      -0.480376
                                                         2.113016      -0.552894
                                                         0.769911      -0.316145
                                                         0.348157       0.210505
                                                         0.128212       0.076095

                          1       5    4dx2              5.605331       0.640026
                                                         2.113016       0.274300
                                                         0.769911       0.446711
                                                         0.348157       0.028674
                                                         0.128212       0.029790
                          1       5    4dxy              5.605331       1.108557
                                                         2.113016       0.475102
                                                         0.769911       0.773726
                                                         0.348157       0.049666
                                                         0.128212       0.051599
                          1       5    4dxz              5.605331       1.108557
                                                         2.113016       0.475102
                                                         0.769911       0.773726
                                                         0.348157       0.049666
                                                         0.128212       0.051599
                          1       5    4dy2              5.605331       0.640026
                                                         2.113016       0.274300
                                                         0.769911       0.446711
                                                         0.348157       0.028674
                                                         0.128212       0.029790
                          1       5    4dyz              5.605331       1.108557
                                                         2.113016       0.475102
                                                         0.769911       0.773726
                                                         0.348157       0.049666
                                                         0.128212       0.051599
                          1       5    4dz2              5.605331       0.640026
                                                         2.113016       0.274300
                                                         0.769911       0.446711
                                                         0.348157       0.028674
                                                         0.128212       0.029790

     GTH Potential information for                                       GTH-PBE

       Description:                       Goedecker-Teter-Hutter pseudopotential
                                           Goedecker et al., PRB 54, 1703 (1996)
                                          Hartwigsen et al., PRB 58, 3641 (1998)
                                                      Krack, TCA 114, 145 (2005)

       Gaussian exponent of the core charge distribution:               4.364419
       Electronic configuration (s p d ...):                               2   2

       Parameters of the local part of the GTH pseudopotential:

                          rloc        C1          C2          C3          C4
                        0.338471   -8.803674    1.339211

       Parameters of the non-local part of the GTH pseudopotential:

                   l      r(l)      h(i,j,l)

                   0    0.302576    9.622487
                   1    0.291507

  4. Atomic kind: H                                     Number of atoms:     144

     Orbital Basis Set                                        DZVP-MOLOPT-SR-GTH

       Number of orbital shell sets:                                           1
       Number of orbital shells:                                               3
       Number of primitive Cartesian functions:                                5
       Number of Cartesian basis functions:                                    5
       Number of spherical basis functions:                                    5
       Norm type:                                                              2

       Normalised Cartesian orbitals:

                        Set   Shell   Orbital            Exponent    Coefficient

                          1       1    2s               10.068468      -0.133023
                                                         2.680223      -0.177618
                                                         0.791502      -0.258419
                                                         0.239116      -0.107525
                                                         0.082193      -0.014019

                          1       2    3s               10.068468       0.344673
                                                         2.680223       1.819821
                                                         0.791502      -0.999069
                                                         0.239116       0.017430
                                                         0.082193       0.082660

                          1       3    3px              10.068468       0.155326
                                                         2.680223       0.367157
                                                         0.791502       0.311480
                                                         0.239116       0.080105
                                                         0.082193       0.033440
                          1       3    3py              10.068468       0.155326
                                                         2.680223       0.367157
                                                         0.791502       0.311480
                                                         0.239116       0.080105
                                                         0.082193       0.033440
                          1       3    3pz              10.068468       0.155326
                                                         2.680223       0.367157
                                                         0.791502       0.311480
                                                         0.239116       0.080105
                                                         0.082193       0.033440

     GTH Potential information for                                       GTH-PBE

       Description:                       Goedecker-Teter-Hutter pseudopotential
                                           Goedecker et al., PRB 54, 1703 (1996)
                                          Hartwigsen et al., PRB 58, 3641 (1998)
                                                      Krack, TCA 114, 145 (2005)

       Gaussian exponent of the core charge distribution:              12.500000
       Electronic configuration (s p d ...):                                   1

       Parameters of the local part of the GTH pseudopotential:

                          rloc        C1          C2          C3          C4
                        0.200000   -4.178900    0.724463


 MOLECULE KIND INFORMATION


 All atoms are their own molecule, skipping detailed information


 TOTAL NUMBERS AND MAXIMUM NUMBERS

  Total number of            - Atomic kinds:                                   4
                             - Atoms:                                        408
                             - Shell sets:                                   408
                             - Shells:                                      1752
                             - Primitive Cartesian functions:               2040
                             - Cartesian basis functions:                   4416
                             - Spherical basis functions:                   4152

  Maximum angular momentum of- Orbital basis functions:                        2
                             - Local part of the GTH pseudopotential:          2
                             - Non-local part of the GTH pseudopotential:      0


 MODULE QUICKSTEP:  ATOMIC COORDINATES IN angstrom

  Atom  Kind  Element       X           Y           Z          Z(eff)       Mass

       1     1 O    8    0.886860   13.986190   -0.238150      6.00      15.9994
       2     2 N    7    3.317470   14.658660   -0.033230      5.00      14.0067
       3     3 C    6    0.578660   15.212850   -0.080870      4.00      12.0107
       4     3 C    6    2.930510   15.922460    0.082070      4.00      12.0107
       5     3 C    6    4.615780   14.201860   -0.049860      4.00      12.0107
       6     3 C    6    5.720380   15.036350    0.176200      4.00      12.0107
       7     3 C    6    6.991170   14.493530    0.135270      4.00      12.0107
       8     3 C    6    7.193520   13.122640   -0.097080      4.00      12.0107
       9     3 C    6    6.067170   12.322140   -0.344330      4.00      12.0107
      10     3 C    6    4.795610   12.844980   -0.319670      4.00      12.0107
      11     3 C    6    1.592300   16.237480    0.066030      4.00      12.0107
      12     4 H    1    3.651800   16.731790    0.184520      1.00       1.0079
      13     4 H    1    5.586800   16.097820    0.366360      1.00       1.0079
      14     4 H    1    2.476970   14.018870   -0.159300      1.00       1.0079
      15     4 H    1    3.926020   12.230760   -0.533610      1.00       1.0079
      16     4 H    1    7.843600   15.148670    0.301770      1.00       1.0079
      17     4 H    1    6.181910   11.264750   -0.555960      1.00       1.0079
      18     1 O    8    2.207150   18.509630    0.164470      6.00      15.9994
      19     2 N    7    0.434630   20.258690    0.330180      5.00      14.0067
      20     3 C    6    1.269340   17.642140    0.163500      4.00      12.0107
      21     3 C    6   -0.500620   19.322520    0.303900      4.00      12.0107
      22     3 C    6    0.231000   21.620400    0.287910      4.00      12.0107
      23     3 C    6   -1.021160   22.200320    0.521280      4.00      12.0107
      24     3 C    6   -1.156150   23.568080    0.401940      4.00      12.0107
      25     3 C    6   -0.060650   24.368440    0.051260      4.00      12.0107
      26     3 C    6    1.186700   23.764770   -0.171880      4.00      12.0107
      27     3 C    6    1.345590   22.403900   -0.037450      4.00      12.0107
      28     3 C    6   -0.118660   17.993290    0.241410      4.00      12.0107
      29     4 H    1   -1.561100   19.576460    0.281680      1.00       1.0079
      30     4 H    1   -1.870330   21.585660    0.811860      1.00       1.0079
      31     4 H    1    1.405500   19.813040    0.259600      1.00       1.0079
      32     4 H    1    2.298720   21.921930   -0.230580      1.00       1.0079
      33     4 H    1   -2.110500   24.036880    0.628670      1.00       1.0079
      34     4 H    1    2.022760   24.369940   -0.514520      1.00       1.0079
      35     1 O    8   -2.387710   17.416280    0.194290      6.00      15.9994
      36     2 N    7   -3.073770   15.096240   -0.330820      5.00      14.0067
      37     3 C    6   -1.169160   17.020730    0.134900      4.00      12.0107
      38     3 C    6   -1.800900   14.700760   -0.315950      4.00      12.0107
      39     3 C    6   -4.206510   14.323500   -0.503160      4.00      12.0107
      40     3 C    6   -4.126650   12.991670   -0.913080      4.00      12.0107
      41     3 C    6   -5.270580   12.216990   -0.891820      4.00      12.0107
      42     3 C    6   -6.500860   12.746900   -0.479320      4.00      12.0107
      43     3 C    6   -6.577110   14.114370   -0.161450      4.00      12.0107
      44     3 C    6   -5.442120   14.904100   -0.179360      4.00      12.0107
      45     3 C    6   -0.805810   15.636230   -0.081660      4.00      12.0107
      46     4 H    1   -1.524280   13.664450   -0.496180      1.00       1.0079
      47     4 H    1   -3.181070   12.579060   -1.257740      1.00       1.0079
      48     4 H    1   -3.119670   16.148010   -0.111450      1.00       1.0079
      49     4 H    1   -5.474560   15.937180    0.160180      1.00       1.0079
      50     4 H    1   -5.228800   11.182910   -1.228350      1.00       1.0079
      51     4 H    1   -7.512170   14.529940    0.197290      1.00       1.0079
      52     1 O    8   14.673840   10.804760    0.814030      6.00      15.9994
      53     2 N    7   12.204740   10.613280    0.286850      5.00      14.0067
      54     3 C    6   14.773970    9.556550    0.588900      4.00      12.0107
      55     3 C    6   12.374950    9.299710    0.175370      4.00      12.0107
      56     3 C    6   11.007630   11.266840    0.081200      4.00      12.0107
      57     3 C    6    9.908990   10.580620   -0.450970      4.00      12.0107
      58     3 C    6    8.690940   11.207190   -0.519970      4.00      12.0107
      59     3 C    6    8.519340   12.525870   -0.068890      4.00      12.0107
      60     3 C    6    9.650060   13.228320    0.379070      4.00      12.0107
      61     3 C    6   10.891410   12.616550    0.427530      4.00      12.0107
      62     3 C    6   13.622090    8.731330    0.327140      4.00      12.0107
      63     4 H    1   11.541550    8.644860   -0.059870      1.00       1.0079
      64     4 H    1   10.019440    9.578250   -0.846990      1.00       1.0079
      65     4 H    1   13.104730   11.101950    0.546380      1.00       1.0079
      66     4 H    1   11.762960   13.153690    0.801440      1.00       1.0079
      67     4 H    1    7.866970   10.678300   -0.993840      1.00       1.0079
      68     4 H    1    9.551480   14.250870    0.718840      1.00       1.0079
      69     1 O    8   12.682890    6.616290   -0.140330      6.00      15.9994
      70     2 N    7   14.193690    4.585240   -0.405180      5.00      14.0067
      71     3 C    6   13.723130    7.309310    0.082500      4.00      12.0107
      72     3 C    6   15.230620    5.408350   -0.211910      4.00      12.0107
      73     3 C    6   14.294360    3.209140   -0.335490      4.00      12.0107
      74     3 C    6   15.505110    2.606800    0.034260      4.00      12.0107
      75     3 C    6   15.578240    1.240520    0.147880      4.00      12.0107
      76     3 C    6   14.452990    0.439000   -0.094540      4.00      12.0107
      77     3 C    6   13.236820    1.052080   -0.429510      4.00      12.0107
      78     3 C    6   13.152670    2.428030   -0.555100      4.00      12.0107
      79     3 C    6   15.053450    6.735190    0.073290      4.00      12.0107
      80     4 H    1   16.247100    5.030440   -0.250860      1.00       1.0079
      81     4 H    1   16.369410    3.212370    0.283960      1.00       1.0079
      82     4 H    1   13.279940    5.109440   -0.374020      1.00       1.0079
      83     4 H    1   12.212380    2.907760   -0.812760      1.00       1.0079
      84     4 H    1   16.503520    0.790080    0.490110      1.00       1.0079
      85     4 H    1   12.363120    0.433930   -0.613730      1.00       1.0079
      86     1 O    8   17.395200    6.957410    0.389340      6.00      15.9994
      87     2 N    7   18.409810    9.322810    0.436730      5.00      14.0067
      88     3 C    6   16.252010    7.507520    0.343460      4.00      12.0107
      89     3 C    6   17.157720    9.767770    0.543770      4.00      12.0107
      90     3 C    6   19.481820   10.153490    0.137540      4.00      12.0107
      91     3 C    6   19.266200   11.470690   -0.298300      4.00      12.0107
      92     3 C    6   20.332110   12.319650   -0.501310      4.00      12.0107
      93     3 C    6   21.642550   11.863290   -0.308210      4.00      12.0107
      94     3 C    6   21.852420   10.531400    0.087190      4.00      12.0107
      95     3 C    6   20.785040    9.676460    0.304440      4.00      12.0107
      96     3 C    6   16.075140    8.922680    0.551760      4.00      12.0107
      97     4 H    1   16.962250   10.837070    0.578930      1.00       1.0079
      98     4 H    1   18.258900   11.810750   -0.513600      1.00       1.0079
      99     4 H    1   18.454340    8.272530    0.454110      1.00       1.0079
     100     4 H    1   20.940550    8.657430    0.649840      1.00       1.0079
     101     4 H    1   20.153650   13.325320   -0.871660      1.00       1.0079
     102     4 H    1   22.866470   10.187180    0.286180      1.00       1.0079
     103     1 O    8    0.124740   14.426100    3.058420      6.00      15.9994
     104     2 N    7    2.645910   14.684800    3.185280      5.00      14.0067
     105     3 C    6    0.021450   15.689740    3.188710      4.00      12.0107
     106     3 C    6    2.444370   15.997780    3.273920      4.00      12.0107
     107     3 C    6    3.903820   14.092910    3.192880      4.00      12.0107
     108     3 C    6    5.042070   14.868190    3.445570      4.00      12.0107
     109     3 C    6    6.287000   14.289030    3.371140      4.00      12.0107
     110     3 C    6    6.458120   12.919540    3.099880      4.00      12.0107
     111     3 C    6    5.299050   12.152060    2.890570      4.00      12.0107
     112     3 C    6    4.033140   12.723880    2.930130      4.00      12.0107
     113     3 C    6    1.173590   16.538000    3.309050      4.00      12.0107
     114     4 H    1    3.279930   16.684600    3.341650      1.00       1.0079
     115     4 H    1    4.961290   15.922670    3.684290      1.00       1.0079
     116     4 H    1    1.719930   14.170150    3.086550      1.00       1.0079
     117     4 H    1    3.145350   12.121970    2.746610      1.00       1.0079
     118     4 H    1    7.150140   14.930590    3.519210      1.00       1.0079
     119     4 H    1    5.386410   11.087380    2.695740      1.00       1.0079
     120     1 O    8    2.131490   18.693000    3.485260      6.00      15.9994
     121     2 N    7    0.636510   20.738030    3.571690      5.00      14.0067
     122     3 C    6    1.082160   17.973150    3.434780      4.00      12.0107
     123     3 C    6   -0.407790   19.907530    3.542550      4.00      12.0107
     124     3 C    6    0.523450   22.112760    3.533270      4.00      12.0107
     125     3 C    6   -0.719520   22.723880    3.728540      4.00      12.0107
     126     3 C    6   -0.831770   24.083920    3.587730      4.00      12.0107
     127     3 C    6    0.286740   24.863810    3.274080      4.00      12.0107
     128     3 C    6    1.539760   24.247780    3.138310      4.00      12.0107
     129     3 C    6    1.665440   22.878300    3.259700      4.00      12.0107
     130     3 C    6   -0.247220   18.547010    3.480560      4.00      12.0107
     131     4 H    1   -1.421330   20.299730    3.533690      1.00       1.0079
     132     4 H    1   -1.585720   22.140230    4.016700      1.00       1.0079
     133     4 H    1    1.549240   20.202910    3.527070      1.00       1.0079
     134     4 H    1    2.628320   22.384460    3.141920      1.00       1.0079
     135     4 H    1   -1.790970   24.564620    3.753820      1.00       1.0079
     136     4 H    1    2.416920   24.853430    2.905490      1.00       1.0079
     137     1 O    8   -2.605070   18.287850    3.397840      6.00      15.9994
     138     2 N    7   -3.598920   15.961580    2.900650      5.00      14.0067
     139     3 C    6   -1.455500   17.750400    3.359590      4.00      12.0107
     140     3 C    6   -2.353110   15.501870    2.987260      4.00      12.0107
     141     3 C    6   -4.699930   15.122830    2.792860      4.00      12.0107
     142     3 C    6   -4.542100   13.776230    2.426670      4.00      12.0107
     143     3 C    6   -5.628580   12.931280    2.457190      4.00      12.0107
     144     3 C    6   -6.895080   13.406170    2.818430      4.00      12.0107
     145     3 C    6   -7.055560   14.771280    3.115970      4.00      12.0107
     146     3 C    6   -5.965360   15.627720    3.099070      4.00      12.0107
     147     3 C    6   -1.275990   16.332510    3.175460      4.00      12.0107
     148     4 H    1   -2.166710   14.433990    2.910190      1.00       1.0079
     149     4 H    1   -3.590020   13.406700    2.073470      1.00       1.0079
     150     4 H    1   -3.642460   17.002050    3.054880      1.00       1.0079
     151     4 H    1   -6.063120   16.673840    3.383090      1.00       1.0079
     152     4 H    1   -5.516910   11.901410    2.135480      1.00       1.0079
     153     4 H    1   -8.026740   15.145680    3.428940      1.00       1.0079
     154     1 O    8   14.107190   11.227670    4.175740      6.00      15.9994
     155     2 N    7   11.640200   10.732650    3.537440      5.00      14.0067
     156     3 C    6   14.360690   10.014090    3.905540      4.00      12.0107
     157     3 C    6   12.007640    9.459780    3.401990      4.00      12.0107
     158     3 C    6   10.378290   11.242710    3.302110      4.00      12.0107
     159     3 C    6    9.330560   10.480430    2.767670      4.00      12.0107
     160     3 C    6    8.068680   11.042190    2.668780      4.00      12.0107
     161     3 C    6    7.805910   12.354490    3.105340      4.00      12.0107
     162     3 C    6    8.897600   13.110130    3.576210      4.00      12.0107
     163     3 C    6   10.165430   12.576090    3.656940      4.00      12.0107
     164     3 C    6   13.307530    9.059860    3.601570      4.00      12.0107
     165     4 H    1   11.282360    8.700560    3.115570      1.00       1.0079
     166     4 H    1    9.499930    9.462650    2.429710      1.00       1.0079
     167     4 H    1   12.438340   11.326180    3.861440      1.00       1.0079
     168     4 H    1   10.992980   13.141090    4.075900      1.00       1.0079
     169     4 H    1    7.269910   10.452310    2.227630      1.00       1.0079
     170     4 H    1    8.753120   14.118450    3.953660      1.00       1.0079
     171     1 O    8   12.607590    6.868370    3.055730      6.00      15.9994
     172     2 N    7   14.314190    5.041620    2.837400      5.00      14.0067
     173     3 C    6   13.567860    7.665170    3.323110      4.00      12.0107
     174     3 C    6   15.270330    5.931120    3.072870      4.00      12.0107
     175     3 C    6   14.501890    3.679000    2.906530      4.00      12.0107
     176     3 C    6   15.723140    3.140500    3.339060      4.00      12.0107
     177     3 C    6   15.850470    1.774600    3.446270      4.00      12.0107
     178     3 C    6   14.780480    0.931160    3.126330      4.00      12.0107
     179     3 C    6   13.561160    1.488410    2.712870      4.00      12.0107
     180     3 C    6   13.415570    2.853890    2.607770      4.00      12.0107
     181     3 C    6   14.940870    7.245780    3.320480      4.00      12.0107
     182     4 H    1   16.316190    5.629720    3.076440      1.00       1.0079
     183     4 H    1   16.542020    3.784160    3.644700      1.00       1.0079
     184     4 H    1   13.353030    5.510200    2.828800      1.00       1.0079
     185     4 H    1   12.482760    3.304880    2.278930      1.00       1.0079
     186     4 H    1   16.763620    1.346400    3.846710      1.00       1.0079
     187     4 H    1   12.736210    0.835600    2.447630      1.00       1.0079
     188     1 O    8   17.226380    7.687120    3.583270      6.00      15.9994
     189     2 N    7   18.010370   10.023570    3.669120      5.00      14.0067
     190     3 C    6   16.030380    8.139170    3.600820      4.00      12.0107
     191     3 C    6   16.753840   10.452360    3.793570      4.00      12.0107
     192     3 C    6   19.082650   10.821480    3.337280      4.00      12.0107
     193     3 C    6   18.884140   12.095130    2.791920      4.00      12.0107
     194     3 C    6   19.968810   12.927070    2.594260      4.00      12.0107
     195     3 C    6   21.263120   12.494770    2.907430      4.00      12.0107
     196     3 C    6   21.454250   11.170100    3.342530      4.00      12.0107
     197     3 C    6   20.374760   10.333760    3.555280      4.00      12.0107
     198     3 C    6   15.725020    9.531690    3.831180      4.00      12.0107
     199     4 H    1   16.528770   11.518140    3.811990      1.00       1.0079
     200     4 H    1   17.886530   12.404150    2.489570      1.00       1.0079
     201     4 H    1   18.044550    8.947510    3.683860      1.00       1.0079
     202     4 H    1   20.507800    9.350610    3.988070      1.00       1.0079
     203     4 H    1   19.830480   13.903050    2.144460      1.00       1.0079
     204     4 H    1   22.459860   10.823380    3.572720      1.00       1.0079
     205     1 O    8    0.624920   13.963760    6.326400      6.00      15.9994
     206     2 N    7    3.135340   14.460690    6.522850      5.00      14.0067
     207     3 C    6    0.403600   15.208000    6.479960      4.00      12.0107
     208     3 C    6    2.796120   15.743570    6.664360      4.00      12.0107
     209     3 C    6    4.432900   13.994100    6.505020      4.00      12.0107
     210     3 C    6    5.532380   14.825970    6.760370      4.00      12.0107
     211     3 C    6    6.811790   14.310970    6.682010      4.00      12.0107
     212     3 C    6    7.035730   12.956580    6.387840      4.00      12.0107
     213     3 C    6    5.913000   12.138420    6.167460      4.00      12.0107
     214     3 C    6    4.632700   12.640590    6.213180      4.00      12.0107
     215     3 C    6    1.487920   16.156220    6.640140      4.00      12.0107
     216     4 H    1    3.564190   16.499880    6.798010      1.00       1.0079
     217     4 H    1    5.388770   15.861680    7.046350      1.00       1.0079
     218     4 H    1    2.285440   13.853550    6.383170      1.00       1.0079
     219     4 H    1    3.772480   11.999920    6.031040      1.00       1.0079
     220     4 H    1    7.646900   14.979560    6.863030      1.00       1.0079
     221     4 H    1    6.043490   11.082620    5.953140      1.00       1.0079
     222     1 O    8    2.269610   18.381770    6.812620      6.00      15.9994
     223     2 N    7    0.630280   20.283630    6.856340      5.00      14.0067
     224     3 C    6    1.277200   17.585390    6.749730      4.00      12.0107
     225     3 C    6   -0.361330   19.403550    6.812750      4.00      12.0107
     226     3 C    6    0.479600   21.657050    6.812470      4.00      12.0107
     227     3 C    6   -0.771660   22.253420    7.017770      4.00      12.0107
     228     3 C    6   -0.904860   23.617330    6.873760      4.00      12.0107
     229     3 C    6    0.201340   24.418050    6.549160      4.00      12.0107
     230     3 C    6    1.455490   23.807140    6.399330      4.00      12.0107
     231     3 C    6    1.601490   22.438710    6.528630      4.00      12.0107
     232     3 C    6   -0.081300   18.049090    6.768070      4.00      12.0107
     233     4 H    1   -1.397190   19.734050    6.771750      1.00       1.0079
     234     4 H    1   -1.630870   21.648020    7.301820      1.00       1.0079
     235     4 H    1    1.577590   19.787760    6.838970      1.00       1.0079
     236     4 H    1    2.562670   21.959000    6.363380      1.00       1.0079
     237     4 H    1   -1.875210   24.086450    7.031190      1.00       1.0079
     238     4 H    1    2.312470   24.417410    6.132110      1.00       1.0079
     239     1 O    8   -2.387070   17.633940    6.699230      6.00      15.9994
     240     2 N    7   -3.230600   15.350050    6.202290      5.00      14.0067
     241     3 C    6   -1.204210   17.156670    6.652900      4.00      12.0107
     242     3 C    6   -1.992970   14.872590    6.267060      4.00      12.0107
     243     3 C    6   -4.381630   14.606930    6.038100      4.00      12.0107
     244     3 C    6   -4.314270   13.283730    5.590540      4.00      12.0107
     245     3 C    6   -5.460960   12.523660    5.615550      4.00      12.0107
     246     3 C    6   -6.673820   13.070930    6.051840      4.00      12.0107
     247     3 C    6   -6.751110   14.428540    6.386510      4.00      12.0107
     248     3 C    6   -5.604060   15.198530    6.387100      4.00      12.0107
     249     3 C    6   -0.937120   15.745530    6.466080      4.00      12.0107
     250     4 H    1   -1.799530   13.803420    6.186570      1.00       1.0079
     251     4 H    1   -3.387260   12.868010    5.214970      1.00       1.0079
     252     4 H    1   -3.235070   16.405440    6.388960      1.00       1.0079
     253     4 H    1   -5.607960   16.228700    6.729930      1.00       1.0079
     254     4 H    1   -5.442150   11.490000    5.275260      1.00       1.0079
     255     4 H    1   -7.684480   14.845360    6.752380      1.00       1.0079
     256     1 O    8   14.521400   10.831300    7.425460      6.00      15.9994
     257     2 N    7   12.087320   10.514710    6.845880      5.00      14.0067
     258     3 C    6   14.691260    9.595400    7.160810      4.00      12.0107
     259     3 C    6   12.316800    9.214630    6.704160      4.00      12.0107
     260     3 C    6   10.873210   11.131570    6.618050      4.00      12.0107
     261     3 C    6    9.778880   10.423310    6.108870      4.00      12.0107
     262     3 C    6    8.559160   11.045280    5.993650      4.00      12.0107
     263     3 C    6    8.374420   12.380070    6.402590      4.00      12.0107
     264     3 C    6    9.497090   13.095210    6.852090      4.00      12.0107
     265     3 C    6   10.737630   12.486730    6.948640      4.00      12.0107
     266     3 C    6   13.592830    8.710990    6.862710      4.00      12.0107
     267     4 H    1   11.520630    8.523470    6.441660      1.00       1.0079
     268     4 H    1    9.890210    9.395670    5.782190      1.00       1.0079
     269     4 H    1   12.969500   11.031910    7.136720      1.00       1.0079
     270     4 H    1   11.597140   13.025710    7.337650      1.00       1.0079
     271     4 H    1    7.742690   10.488160    5.555990      1.00       1.0079
     272     4 H    1    9.393040   14.122710    7.183680      1.00       1.0079
     273     1 O    8   12.773270    6.552570    6.404650      6.00      15.9994
     274     2 N    7   14.363910    4.624560    6.105040      5.00      14.0067
     275     3 C    6   13.778710    7.304090    6.625650      4.00      12.0107
     276     3 C    6   15.373760    5.468160    6.340380      4.00      12.0107
     277     3 C    6   14.493110    3.250010    6.172150      4.00      12.0107
     278     3 C    6   15.681190    2.681330    6.631720      4.00      12.0107
     279     3 C    6   15.788140    1.314050    6.731460      4.00      12.0107
     280     3 C    6   14.703380    0.488590    6.394890      4.00      12.0107
     281     3 C    6   13.506390    1.077150    5.962530      4.00      12.0107
     282     3 C    6   13.403120    2.448940    5.820160      4.00      12.0107
     283     3 C    6   15.133750    6.794250    6.598600      4.00      12.0107
     284     4 H    1   16.400170    5.122250    6.306450      1.00       1.0079
     285     4 H    1   16.488380    3.310950    7.006180      1.00       1.0079
     286     4 H    1   13.432010    5.139500    6.132770      1.00       1.0079
     287     4 H    1   12.500880    2.913510    5.439290      1.00       1.0079
     288     4 H    1   16.689270    0.875760    7.143610      1.00       1.0079
     289     4 H    1   12.658580    0.445160    5.706670      1.00       1.0079
     290     1 O    8   17.463950    7.166230    6.834090      6.00      15.9994
     291     2 N    7   18.314840    9.585610    6.896440      5.00      14.0067
     292     3 C    6   16.286920    7.642250    6.845300      4.00      12.0107
     293     3 C    6   17.046890    9.963100    7.035690      4.00      12.0107
     294     3 C    6   19.357630   10.450820    6.614580      4.00      12.0107
     295     3 C    6   19.116040   11.748610    6.139670      4.00      12.0107
     296     3 C    6   20.173810   12.613610    5.948920      4.00      12.0107
     297     3 C    6   21.481780   12.184190    6.205570      4.00      12.0107
     298     3 C    6   21.715060   10.866030    6.616480      4.00      12.0107
     299     3 C    6   20.663070    9.997810    6.825130      4.00      12.0107
     300     3 C    6   16.024860    9.044060    7.076810      4.00      12.0107
     301     4 H    1   16.799860   11.019440    7.068090      1.00       1.0079
     302     4 H    1   18.104280   12.049040    5.884420      1.00       1.0079
     303     4 H    1   18.418590    8.540350    6.891100      1.00       1.0079
     304     4 H    1   20.826870    9.000220    7.228580      1.00       1.0079
     305     4 H    1   20.006270   13.603900    5.534610      1.00       1.0079
     306     4 H    1   22.733800   10.546760    6.829010      1.00       1.0079
     307     1 O    8   -0.180250   14.487240    9.577140      6.00      15.9994
     308     2 N    7    2.341860   14.840460    9.765570      5.00      14.0067
     309     3 C    6   -0.328010   15.741240    9.729650      4.00      12.0107
     310     3 C    6    2.081140   16.137160    9.891290      4.00      12.0107
     311     3 C    6    3.619450   14.304400    9.743090      4.00      12.0107
     312     3 C    6    4.739010   15.111070    9.981080      4.00      12.0107
     313     3 C    6    5.998730   14.561040    9.930840      4.00      12.0107
     314     3 C    6    6.197090   13.201880    9.639950      4.00      12.0107
     315     3 C    6    5.063510   12.402450    9.416940      4.00      12.0107
     316     3 C    6    3.786900   12.945150    9.460810      4.00      12.0107
     317     3 C    6    0.792630   16.628920    9.873950      4.00      12.0107
     318     4 H    1    2.891630   16.856360    9.982900      1.00       1.0079
     319     4 H    1    4.633770   16.163220   10.225850      1.00       1.0079
     320     4 H    1    1.455570   14.277620    9.654060      1.00       1.0079
     321     4 H    1    2.910200   12.335640    9.250230      1.00       1.0079
     322     4 H    1    6.847650   15.205300   10.123260      1.00       1.0079
     323     4 H    1    5.177380   11.340100    9.218570      1.00       1.0079
     324     1 O    8    1.679460   18.806910    9.917710      6.00      15.9994
     325     2 N    7    0.155940   20.804300   10.077720      5.00      14.0067
     326     3 C    6    0.645180   18.062060    9.941780      4.00      12.0107
     327     3 C    6   -0.886750   19.968190   10.058090      4.00      12.0107
     328     3 C    6    0.070260   22.183030   10.043420      4.00      12.0107
     329     3 C    6   -1.147800   22.838520   10.254030      4.00      12.0107
     330     3 C    6   -1.212780   24.204680   10.108400      4.00      12.0107
     331     3 C    6   -0.076350   24.953920    9.775240      4.00      12.0107
     332     3 C    6    1.153650   24.294220    9.630850      4.00      12.0107
     333     3 C    6    1.229420   22.919470    9.763430      4.00      12.0107
     334     3 C    6   -0.696030   18.604750   10.000810      4.00      12.0107
     335     4 H    1   -1.904340   20.358200   10.049000      1.00       1.0079
     336     4 H    1   -2.029880   22.281770   10.549320      1.00       1.0079
     337     4 H    1    1.067490   20.262800   10.004220      1.00       1.0079
     338     4 H    1    2.173200   22.393160    9.620520      1.00       1.0079
     339     4 H    1   -2.152390   24.717120   10.292440      1.00       1.0079
     340     4 H    1    2.048160   24.862620    9.379060      1.00       1.0079
     341     1 O    8   -3.042960   18.247390    9.955350      6.00      15.9994
     342     2 N    7   -3.959840   15.885390    9.535070      5.00      14.0067
     343     3 C    6   -1.870190   17.758240    9.908530      4.00      12.0107
     344     3 C    6   -2.695040   15.474070    9.550160      4.00      12.0107
     345     3 C    6   -5.029350   15.015280    9.397730      4.00      12.0107
     346     3 C    6   -4.829890   13.695390    8.973090      4.00      12.0107
     347     3 C    6   -5.891350   12.818070    8.951060      4.00      12.0107
     348     3 C    6   -7.172690   13.240730    9.330600      4.00      12.0107
     349     3 C    6   -7.362240   14.582600    9.694620      4.00      12.0107
     350     3 C    6   -6.303990   15.472550    9.730210      4.00      12.0107
     351     3 C    6   -1.648190   16.340860    9.731620      4.00      12.0107
     352     4 H    1   -2.467730   14.417120    9.429620      1.00       1.0079
     353     4 H    1   -3.852590   13.366600    8.626830      1.00       1.0079
     354     4 H    1   -4.034120   16.919980    9.729430      1.00       1.0079
     355     4 H    1   -6.431010   16.495210   10.076230      1.00       1.0079
     356     4 H    1   -5.737750   11.807180    8.587940      1.00       1.0079
     357     4 H    1   -8.349290   14.903990   10.019450      1.00       1.0079
     358     1 O    8   13.844290   11.377940   10.602370      6.00      15.9994
     359     2 N    7   11.390040   11.046550    9.933300      5.00      14.0067
     360     3 C    6   14.018130   10.140350   10.377650      4.00      12.0107
     361     3 C    6   11.657530    9.742220    9.846630      4.00      12.0107
     362     3 C    6   10.133530   11.586580    9.746270      4.00      12.0107
     363     3 C    6    9.077830   10.823980    9.235930      4.00      12.0107
     364     3 C    6    7.812540   11.365700    9.162900      4.00      12.0107
     365     3 C    6    7.552770   12.667180    9.619630      4.00      12.0107
     366     3 C    6    8.642880   13.434890   10.073790      4.00      12.0107
     367     3 C    6    9.921910   12.916300   10.122520      4.00      12.0107
     368     3 C    6   12.918810    9.247500   10.073380      4.00      12.0107
     369     4 H    1   10.876080    9.031280    9.590290      1.00       1.0079
     370     4 H    1    9.260260    9.820810    8.868680      1.00       1.0079
     371     4 H    1   12.216500   11.598230   10.266210      1.00       1.0079
     372     4 H    1   10.739160   13.490380   10.549600      1.00       1.0079
     373     4 H    1    7.021420   10.781240    8.705160      1.00       1.0079
     374     4 H    1    8.482950   14.431600   10.470820      1.00       1.0079
     375     1 O    8   12.102380    7.058170    9.652450      6.00      15.9994
     376     2 N    7   13.796940    5.129490    9.338690      5.00      14.0067
     377     3 C    6   13.094910    7.822330    9.868660      4.00      12.0107
     378     3 C    6   14.740140    6.030940    9.584810      4.00      12.0107
     379     3 C    6   14.043090    3.767570    9.366690      4.00      12.0107
     380     3 C    6   15.291370    3.266310    9.763020      4.00      12.0107
     381     3 C    6   15.475870    1.902750    9.875970      4.00      12.0107
     382     3 C    6   14.427090    1.021640    9.591310      4.00      12.0107
     383     3 C    6   13.198820    1.540190    9.149070      4.00      12.0107
     384     3 C    6   12.998610    2.901000    9.035090      4.00      12.0107
     385     3 C    6   14.448290    7.338870    9.875170      4.00      12.0107
     386     4 H    1   15.783570    5.734190    9.575180      1.00       1.0079
     387     4 H    1   16.095650    3.932350   10.057650      1.00       1.0079
     388     4 H    1   12.834410    5.555170    9.353210      1.00       1.0079
     389     4 H    1   12.054470    3.315790    8.695330      1.00       1.0079
     390     4 H    1   16.417510    1.517110   10.253290      1.00       1.0079
     391     4 H    1   12.405650    0.857420    8.859340      1.00       1.0079
     392     1 O    8   16.756870    7.657210   10.213710      6.00      15.9994
     393     2 N    7   17.662570    9.976370   10.182660      5.00      14.0067
     394     3 C    6   15.586850    8.169890   10.161090      4.00      12.0107
     395     3 C    6   16.420710   10.444590   10.314170      4.00      12.0107
     396     3 C    6   18.758980   10.737330    9.825450      4.00      12.0107
     397     3 C    6   18.590070   12.041460    9.355390      4.00      12.0107
     398     3 C    6   19.707380   12.822310    9.136930      4.00      12.0107
     399     3 C    6   20.989920   12.323560    9.404850      4.00      12.0107
     400     3 C    6   21.146010   10.972450    9.745870      4.00      12.0107
     401     3 C    6   20.036790   10.175180    9.957810      4.00      12.0107
     402     3 C    6   15.351420    9.575890   10.367840      4.00      12.0107
     403     4 H    1   16.231900   11.516490   10.318480      1.00       1.0079
     404     4 H    1   17.601320   12.415960    9.109000      1.00       1.0079
     405     4 H    1   17.670140    8.911430   10.213200      1.00       1.0079
     406     4 H    1   20.133840    9.135310   10.257870      1.00       1.0079
     407     4 H    1   19.602310   13.815960    8.718310      1.00       1.0079
     408     4 H    1   22.143080   10.572230    9.913910      1.00       1.0079




 SCF PARAMETERS         Density guess:                                   RESTART
                        --------------------------------------------------------
                        max_scf:                                              50
                        max_scf_history:                                       0
                        max_diis:                                              4
                        --------------------------------------------------------
                        eps_scf:                                        1.00E-06
                        eps_scf_history:                                0.00E+00
                        eps_diis:                                       1.00E-01
                        eps_eigval:                                     1.00E-05
                        --------------------------------------------------------
                        level_shift [a.u.]:                                 0.00
                        --------------------------------------------------------
                        Outer loop SCF in use 
                        No variables optimised in outer loop
                        eps_scf                                         1.00E-06
                        max_scf                                               10
                        No outer loop optimization
                        step_size                                       5.00E-01

 PW_GRID| Information for grid number                                          1
 PW_GRID| Grid distributed over                                    49 processors
 PW_GRID| Real space group dimensions                                    49    1
 PW_GRID| the grid is blocked:                                                NO
 PW_GRID| Cutoff [a.u.]                                                    300.0
 PW_GRID| spherical cutoff:                                                   NO
 PW_GRID|   Bounds   1           -216     215                Points:         432
 PW_GRID|   Bounds   2           -216     215                Points:         432
 PW_GRID|   Bounds   3            -96      95                Points:         192
 PW_GRID| Volume element (a.u.^3)  0.1819E-02     Volume (a.u.^3)     65166.3335
 PW_GRID| Grid span                                                    FULLSPACE
 PW_GRID|   Distribution                         Average         Max         Min
 PW_GRID|   G-Vectors                           731261.4      731376      730944
 PW_GRID|   G-Rays                                1692.7        1693        1692
 PW_GRID|   Real Space Points                   731261.4      746496      663552

 PW_GRID| Information for grid number                                          2
 PW_GRID| Grid distributed over                                    49 processors
 PW_GRID| Real space group dimensions                                    49    1
 PW_GRID| the grid is blocked:                                                NO
 PW_GRID| Cutoff [a.u.]                                                    100.0
 PW_GRID| spherical cutoff:                                                   NO
 PW_GRID|   Bounds   1           -128     127                Points:         256
 PW_GRID|   Bounds   2           -128     127                Points:         256
 PW_GRID|   Bounds   3            -60      59                Points:         120
 PW_GRID| Volume element (a.u.^3)  0.8286E-02     Volume (a.u.^3)     65166.3335
 PW_GRID| Grid span                                                    FULLSPACE
 PW_GRID|   Distribution                         Average         Max         Min
 PW_GRID|   G-Vectors                           160496.3      162048      158208
 PW_GRID|   G-Rays                                 626.9         633         618
 PW_GRID|   Real Space Points                   160496.3      184320      153600

 PW_GRID| Information for grid number                                          3
 PW_GRID| Grid distributed over                                    49 processors
 PW_GRID| Real space group dimensions                                    49    1
 PW_GRID| the grid is blocked:                                                NO
 PW_GRID| Cutoff [a.u.]                                                     33.3
 PW_GRID| spherical cutoff:                                                   NO
 PW_GRID|   Bounds   1            -72      71                Points:         144
 PW_GRID|   Bounds   2            -72      71                Points:         144
 PW_GRID|   Bounds   3            -32      31                Points:          64
 PW_GRID| Volume element (a.u.^3)  0.4910E-01     Volume (a.u.^3)     65166.3335
 PW_GRID| Grid span                                                    FULLSPACE
 PW_GRID|   Distribution                         Average         Max         Min
 PW_GRID|   G-Vectors                            27083.8       27936       26064
 PW_GRID|   G-Rays                                 188.1         194         181
 PW_GRID|   Real Space Points                    27083.8       27648       18432

 PW_GRID| Information for grid number                                          4
 PW_GRID| Grid distributed over                                    49 processors
 PW_GRID| Real space group dimensions                                    49    1
 PW_GRID| the grid is blocked:                                                NO
 PW_GRID| Cutoff [a.u.]                                                     11.1
 PW_GRID| spherical cutoff:                                                   NO
 PW_GRID|   Bounds   1            -45      44                Points:          90
 PW_GRID|   Bounds   2            -45      44                Points:          90
 PW_GRID|   Bounds   3            -20      19                Points:          40
 PW_GRID| Volume element (a.u.^3)  0.2011         Volume (a.u.^3)     65166.3335
 PW_GRID| Grid span                                                    FULLSPACE
[...]
 flops    96 x    64 x    64          25928663040     100.0%      0.0%      0.0%
 flops    13 x    32 x    32          26842742784     100.0%      0.0%      0.0%
 flops     5 x     5 x    64          34032812800     100.0%      0.0%      0.0%
 flops    64 x    92 x    96          37272453120     100.0%      0.0%      0.0%
 flops    64 x    96 x    92          37272453120     100.0%      0.0%      0.0%
 flops    92 x    64 x    96          37272453120     100.0%      0.0%      0.0%
 flops    92 x    96 x    64          37272453120     100.0%      0.0%      0.0%
 flops    96 x    64 x    92          37272453120     100.0%      0.0%      0.0%
 flops    96 x    92 x    64          37272453120     100.0%      0.0%      0.0%
 flops     5 x     5 x    92          48922168400     100.0%      0.0%      0.0%
 flops    64 x    64 x   591          49625088000     100.0%      0.0%      0.0%
 flops    92 x    92 x    96          53579151360     100.0%      0.0%      0.0%
 flops    92 x    96 x    92          53579151360     100.0%      0.0%      0.0%
 flops    96 x    92 x    92          53579151360     100.0%      0.0%      0.0%
 flops   591 x    64 x    64          59598520320     100.0%      0.0%      0.0%
 flops    64 x    92 x   591          71336064000     100.0%      0.0%      0.0%
 flops    92 x    64 x   591          71336064000     100.0%      0.0%      0.0%
 flops     5 x    28 x     5          84021999600     100.0%      0.0%      0.0%
 flops   591 x    64 x    92          85672872960     100.0%      0.0%      0.0%
 flops   591 x    92 x    64          85672872960     100.0%      0.0%      0.0%
 flops    92 x    92 x   591         102545592000     100.0%      0.0%      0.0%
 flops   591 x    92 x    92         123154754880     100.0%      0.0%      0.0%
 flops    64 x    64 x   594         124692480000     100.0%      0.0%      0.0%
 flops    13 x     5 x    64         148896808320     100.0%      0.0%      0.0%
 flops     5 x    13 x    64         149016699520     100.0%      0.0%      0.0%
 flops   594 x    64 x    64         149752627200     100.0%      0.0%      0.0%
 flops    64 x    92 x   594         179245440000     100.0%      0.0%      0.0%
 flops    92 x    64 x   594         179245440000     100.0%      0.0%      0.0%
 flops    96 x    96 x    64         194464972800     100.0%      0.0%      0.0%
 flops    64 x    96 x    96         194464972800     100.0%      0.0%      0.0%
 flops    96 x    64 x    96         194464972800     100.0%      0.0%      0.0%
 flops    13 x     5 x    92         214039161960     100.0%      0.0%      0.0%
 flops     5 x    13 x    92         214211505560     100.0%      0.0%      0.0%
 flops   594 x    64 x    92         215269401600     100.0%      0.0%      0.0%
 flops   594 x    92 x    64         215269401600     100.0%      0.0%      0.0%
 flops     5 x     5 x    96         255246096000     100.0%      0.0%      0.0%
 flops    92 x    92 x   594         257665320000     100.0%      0.0%      0.0%
 flops    96 x    96 x    92         279543398400     100.0%      0.0%      0.0%
 flops    92 x    96 x    96         279543398400     100.0%      0.0%      0.0%
 flops    96 x    92 x    96         279543398400     100.0%      0.0%      0.0%
 flops   594 x    92 x    92         309449764800     100.0%      0.0%      0.0%
 flops     5 x    28 x    13         371855149120     100.0%      0.0%      0.0%
 flops    13 x    28 x     5         371855149120     100.0%      0.0%      0.0%
 flops    64 x    96 x   591         372188160000     100.0%      0.0%      0.0%
 flops    96 x    64 x   591         372188160000     100.0%      0.0%      0.0%
 flops   591 x    64 x    96         446988902400     100.0%      0.0%      0.0%
 flops   591 x    96 x    64         446988902400     100.0%      0.0%      0.0%
 flops   591 x    64 x   591         512174481408     100.0%      0.0%      0.0%
 flops    92 x    96 x   591         535020480000     100.0%      0.0%      0.0%
 flops    96 x    92 x   591         535020480000     100.0%      0.0%      0.0%
 flops   591 x    92 x    96         642546547200     100.0%      0.0%      0.0%
 flops   591 x    96 x    92         642546547200     100.0%      0.0%      0.0%
 flops    13 x    13 x    64         651019452928     100.0%      0.0%      0.0%
 flops   591 x    92 x   591         736250817024     100.0%      0.0%      0.0%
 flops    64 x    96 x   594         935193600000     100.0%      0.0%      0.0%
 flops    96 x    64 x   594         935193600000     100.0%      0.0%      0.0%
 flops    13 x    13 x    92         935840463584     100.0%      0.0%      0.0%
 flops    13 x     5 x    96        1116726062400     100.0%      0.0%      0.0%
 flops     5 x    13 x    96        1117625246400     100.0%      0.0%      0.0%
 flops   594 x    96 x    64        1123144704000     100.0%      0.0%      0.0%
 flops   594 x    64 x    96        1123144704000     100.0%      0.0%      0.0%
 flops   594 x    64 x   591        1286935879680     100.0%      0.0%      0.0%
 flops   591 x    64 x   594        1286935879680     100.0%      0.0%      0.0%
 flops    92 x    96 x   594        1344340800000     100.0%      0.0%      0.0%
 flops    96 x    92 x   594        1344340800000     100.0%      0.0%      0.0%
 flops    96 x    96 x    96        1458487296000     100.0%      0.0%      0.0%
 flops    13 x    28 x    13        1613650594192     100.0%      0.0%      0.0%
 flops   594 x    96 x    92        1614520512000     100.0%      0.0%      0.0%
 flops   594 x    92 x    96        1614520512000     100.0%      0.0%      0.0%
 flops     5 x    32 x     5        1824477705600     100.0%      0.0%      0.0%
 flops   594 x    92 x   591        1849970327040     100.0%      0.0%      0.0%
 flops   591 x    92 x   594        1849970327040     100.0%      0.0%      0.0%
 flops    96 x    96 x   591        2791411200000     100.0%      0.0%      0.0%
 flops   594 x    64 x   594        3233671372800     100.0%      0.0%      0.0%
 flops   591 x    96 x    96        3352416768000     100.0%      0.0%      0.0%
 flops   591 x    96 x   591        3841308610560     100.0%      0.0%      0.0%
 flops   594 x    92 x   594        4648402598400     100.0%      0.0%      0.0%
 flops    13 x    13 x    96        4882645896960     100.0%      0.0%      0.0%
 flops    96 x    96 x   594        7013952000000     100.0%      0.0%      0.0%
 flops     5 x    32 x    13        8074568952320     100.0%      0.0%      0.0%
 flops    13 x    32 x     5        8074568952320     100.0%      0.0%      0.0%
 flops   594 x    96 x    96        8423585280000     100.0%      0.0%      0.0%
 flops   594 x    96 x   591        9652019097600     100.0%      0.0%      0.0%
 flops   591 x    96 x   594        9652019097600     100.0%      0.0%      0.0%
 flops   594 x    96 x   594       24252535296000     100.0%      0.0%      0.0%
 flops    13 x    32 x    13       35039270045312     100.0%      0.0%      0.0%
 flops inhomo. stacks                           0       0.0%      0.0%      0.0%
 flops total                       169.339989E+12     100.0%      0.0%      0.0%
 flops max/rank                      3.692897E+12     100.0%      0.0%      0.0%
 matmuls inhomo. stacks                         0       0.0%      0.0%      0.0%
 matmuls total                         9241231044     100.0%      0.0%      0.0%
 number of processed stacks              21797550     100.0%      0.0%      0.0%
 average stack size                                   424.0       0.0       0.0
 marketing flops                   243.381284E+12
 -------------------------------------------------------------------------------
 # multiplications                          27432
 max memory usage/rank               1.039569E+09
 # max total images/rank                        1
 # max 3D layers                                1
 # MPI messages exchanged                16130016
 MPI messages size (bytes):
  total size                         8.311348E+12
  min size                           0.000000E+00
  max size                           2.822688E+06
  average size                     515.272125E+03
 MPI breakdown and total messages size (bytes):
             size <=      128              168840                        0
       128 < size <=     8192                   0                        0
      8192 < size <=    32768              124500               3998264064
     32768 < size <=   131072             5570784             371756985600
    131072 < size <=  4194304            10265892            7934886065664
   4194304 < size <= 16777216                   0                        0
  16777216 < size                               0                        0
 -------------------------------------------------------------------------------
 
 MEMORY| Estimated peak process memory [MiB]                                 992

 -------------------------------------------------------------------------------
 ----                             MULTIGRID INFO                            ----
 -------------------------------------------------------------------------------
 count for grid        1:         775397          cutoff [a.u.]          300.00
 count for grid        2:         510932          cutoff [a.u.]          100.00
 count for grid        3:         455904          cutoff [a.u.]           33.33
 count for grid        4:         209356          cutoff [a.u.]           11.11
 total gridlevel count  :        1951589

 -------------------------------------------------------------------------------
 -                                                                             -
 -                         MESSAGE PASSING PERFORMANCE                         -
 -                                                                             -
 -------------------------------------------------------------------------------

 ROUTINE             CALLS      AVE VOLUME [Bytes]
 MP_Group             4413
 MP_Bcast             7796                  99560.
 MP_Allreduce       109015                   3530.
 MP_Sync              1411
 MP_Alltoall        166985                5516410.
 MP_SendRecv         38592                   3966.
 MP_ISendRecv       274944                 202084.
 MP_Wait           2338700
 MP_comm_split         603
 MP_ISend           836610                 366789.
 MP_IRecv           836610                 364543.
 MP_Recv             11419                 565054.
 MP_Memory         1089322
 -------------------------------------------------------------------------------


 -------------------------------------------------------------------------------
 -                                                                             -
 -                           R E F E R E N C E S                               -
 -                                                                             -
 -------------------------------------------------------------------------------
 
 CP2K version 5.1, the CP2K developers group (2017).
 CP2K is freely available from https://www.cp2k.org/ .

 Schuett, Ole; Messmer, Peter; Hutter, Juerg; VandeVondele, Joost. 
 Electronic Structure Calculations on Graphics Processing Units, John Wiley & Sons, Ltd, 173-190 (2016). 
 GPU-Accelerated Sparse Matrix-Matrix Multiplication for Linear Scaling Density Functional Theory.
 http://dx.doi.org/10.1002/9781118670712.ch8


 Borstnik, U; VandeVondele, J; Weber, V; Hutter, J. 
 PARALLEL COMPUTING, 40 (5-6), 47-58 (2014). 
 Sparse matrix multiplication: The distributed block-compressed sparse
 row library.
 http://dx.doi.org/10.1016/j.parco.2014.03.012


 Hutter, J; Iannuzzi, M; Schiffmann, F; VandeVondele, J. 
 WILEY INTERDISCIPLINARY REVIEWS-COMPUTATIONAL MOLECULAR SCIENCE, 4 (1), 15-25 (2014). 
 CP2K: atomistic simulations of condensed matter systems.
 http://dx.doi.org/10.1002/wcms.1159


 Grimme, S; Ehrlich, S; Goerigk, L. 
 JOURNAL OF COMPUTATIONAL CHEMISTRY, 32, 1456 (2011). 
 Effect of the damping function in dispersion corrected density functional theory.
 http://dx.doi.org/10.1002/jcc.21759


 Grimme, S; Antony, J; Ehrlich, S; Krieg, H. 
 JOURNAL OF CHEMICAL PHYSICS, 132 (15), 154104 (2010). 
 A consistent and accurate ab initio parametrization of density
 functional dispersion correction (DFT-D) for the 94 elements H-Pu.
 http://dx.doi.org/10.1063/1.3382344


 VandeVondele, J; Hutter, J. 
 JOURNAL OF CHEMICAL PHYSICS, 127 (11), 114105 (2007). 
 Gaussian basis sets for accurate calculations on molecular systems in
 gas and condensed phases.
 http://dx.doi.org/10.1063/1.2770708


 Krack, M. 
 THEORETICAL CHEMISTRY ACCOUNTS, 114 (1-3), 145-152 (2005). 
 Pseudopotentials for H to Kr optimized for gradient-corrected
 exchange-correlation functionals.
 http://dx.doi.org/10.1007/s00214-005-0655-y


 VandeVondele, J; Krack, M; Mohamed, F; Parrinello, M; Chassaing, T;
 Hutter, J. COMPUTER PHYSICS COMMUNICATIONS, 167 (2), 103-128 (2005). 
 QUICKSTEP: Fast and accurate density functional calculations using a
 mixed Gaussian and plane waves approach.
 http://dx.doi.org/10.1016/j.cpc.2004.12.014


 Frigo, M; Johnson, SG. 
 PROCEEDINGS OF THE IEEE, 93 (2), 216-231 (2005). 
 The design and implementation of FFTW3.
 http://dx.doi.org/10.1109/JPROC.2004.840301


 Kolafa, J. 
 JOURNAL OF COMPUTATIONAL CHEMISTRY, 25 (3), 335-342 (2004). 
 Time-reversible always stable predictor-corrector method for molecular dynamics of polarizable molecules.
 http://dx.doi.org/10.1002/jcc.10385


 VandeVondele, J; Hutter, J. 
 JOURNAL OF CHEMICAL PHYSICS, 118 (10), 4365-4369 (2003). 
 An efficient orbital transformation method for electronic structure
 calculations.
 http://dx.doi.org/10.1063/1.1543154


 Hartwigsen, C; Goedecker, S; Hutter, J. 
 PHYSICAL REVIEW B, 58 (7), 3641-3662 (1998). 
 Relativistic separable dual-space Gaussian pseudopotentials from H to Rn.
 http://dx.doi.org/10.1103/PhysRevB.58.3641


 Lippert, G; Hutter, J; Parrinello, M. 
 MOLECULAR PHYSICS, 92 (3), 477-487 (1997). 
 A hybrid Gaussian and plane wave density functional scheme.
 http://dx.doi.org/10.1080/002689797170220


 Perdew, JP; Burke, K; Ernzerhof, M. 
 PHYSICAL REVIEW LETTERS, 77 (18), 3865-3868 (1996). 
 Generalized gradient approximation made simple.
 http://dx.doi.org/10.1103/PhysRevLett.77.3865


 Goedecker, S; Teter, M; Hutter, J. 
 PHYSICAL REVIEW B, 54 (3), 1703-1710 (1996). 
 Separable dual-space Gaussian pseudopotentials.
 http://dx.doi.org/10.1103/PhysRevB.54.1703


 -------------------------------------------------------------------------------
 -                                                                             -
 -                                T I M I N G                                  -
 -                                                                             -
 -------------------------------------------------------------------------------
 SUBROUTINE                       CALLS  ASD         SELF TIME        TOTAL TIME
                                MAXIMUM       AVERAGE  MAXIMUM  AVERAGE  MAXIMUM
 CP2K                                 1  1.0    0.078    0.113 7077.297 7077.302
 cp_cell_opt                          1  2.0    0.003    0.007 7076.513 7076.526
 geoopt_bfgs                          1  3.0    0.116    0.575 7076.510 7076.519
 cp_eval_at                         201  4.0    0.043    0.368 7048.931 7048.940
 qs_forces                          201  5.0    0.047    0.063 7048.596 7048.607
 qs_energies                        201  6.0    0.024    0.064 6100.968 6101.107
 scf_env_do_scf                     201  7.0    0.034    0.168 5664.814 5664.839
 scf_env_do_scf_inner_loop         1231  8.0    0.056    0.526 4732.823 4735.720
 rebuild_ks_matrix                 1432  9.6    0.005    0.006 4077.887 4080.253
 qs_ks_build_kohn_sham_matrix      1432 10.6    0.221    0.530 4077.882 4080.248
 qs_ks_update_qs_env               1432  9.0    0.011    0.013 3250.522 3252.538
 pw_transfer                      27409 13.3    2.025    2.594 2031.805 2119.952
 fft_wrap_pw1pw2                  24545 14.4    0.224    0.283 2013.849 2105.397
 sum_up_and_integrate              1432 11.6    9.052   10.906 2030.839 2036.565
 qs_rho_update_rho                 1432  9.1    0.008    0.010 2033.580 2033.983
 calculate_rho_elec                1432 10.1 1376.666 1456.672 2033.572 2033.976
 integrate_v_rspace                1432 12.6 1498.828 1591.360 2021.784 2028.951
 fft_wrap_pw1pw2_300              15953 15.5  111.634  126.241 1931.091 2007.049
 fft3d_ps                         24545 16.4  823.411  913.002 1660.358 1793.282
 qs_vxc_create                     1432 11.6    0.029    0.037 1707.821 1716.254
 xc_vxc_pw_create                  1432 12.6   71.589   79.732 1707.792 1716.232
 init_scf_loop                      201  8.0    0.006    0.011  928.488  928.522
 xc_rho_set_and_dset_create        1432 13.6    5.767    7.022  822.658  912.232
 mp_alltoall_z22v                 24545 18.4  596.526  839.421  596.526  839.421
 qs_ks_update_qs_env_forces         201  6.0    0.001    0.001  828.729  829.059
 density_rs2pw                     1432 11.1    0.074    0.095  613.082  677.209
 yz_to_x                          11657 16.9   85.452   96.472  416.427  550.916
 rs_pw_transfer                   11858 13.2    0.137    0.167  458.805  525.543
 x_to_yz                          12888 17.9  154.266  179.450  419.817  491.159
 potential_pw2rs                   1432 13.6    0.515    0.602  404.529  411.810
 dbcsr_multiply_generic           27432 13.8    1.731    1.876  387.984  396.341
 prepare_preconditioner             201  9.0    0.001    0.002  387.350  388.367
 make_preconditioner                201 10.0    0.006    0.008  364.969  365.121
 init_scf_run                       201  7.0    0.008    0.076  346.377  346.386
 scf_env_initial_rho_setup          201  8.0    0.004    0.038  346.366  346.375
 wfi_extrapolate                    201  9.0    0.030    0.167  344.233  344.238
 make_full_all                      201 11.0    0.055    0.078  340.759  340.853
 xc_functional_eval                1432 14.6    0.012    0.017  234.443  326.667
 pbe_lda_eval                      1432 15.6  234.430  326.658  234.430  326.658
 multiply_cannon                  27432 14.8    4.007    4.772  297.933  319.571
 mp_waitany                       69318 15.1  167.556  283.620  167.556  283.620
 qs_scf_new_mos                    1231  9.0    0.007    0.010  263.461  268.525
 qs_scf_loop_do_ot                 1231 10.0    0.023    0.053  263.454  268.518
 ot_scf_mini                       1231 11.0    0.073    0.105  246.993  252.309
 cp_fm_syevd                        804 10.2   25.065   39.033  243.899  245.197
 cp_fm_syevd_base                   804 11.1  215.866  239.554  215.866  239.554
 rs_pw_transfer_RS2PW_300          1633 12.9   63.263   79.919  155.194  239.158
 mp_alltoall_d11v                 41282 14.4  127.263  210.976  127.263  210.976
 rs_distribute_matrix              3065 12.3    4.211    7.103  125.942  208.355
 multiply_cannon_multrec         192024 15.8  184.520  206.688  184.730  206.913
 mp_waitall_1                   2269382 17.1  141.642  200.677  141.642  200.677
 ot_mini                           1231 12.0    0.010    0.013  170.517  176.481
 -------------------------------------------------------------------------------

 The number of warnings for this run is : 0
 
 -------------------------------------------------------------------------------
  **** **** ******  **  PROGRAM ENDED AT                 2018-10-11 17:13:52.402
 ***** ** ***  *** **   PROGRAM RAN ON                                      g106
 **    ****   ******    PROGRAM RAN BY                                    ongari
 ***** **    ** ** **   PROGRAM PROCESS ID                                  9709
  **** **  *******  **  PROGRAM STOPPED IN /scratch/ongari/proj44_studycases/CEL
                                           LOPT/4_CELL_OPT_bfgs
