 DBCSR| Multiplication driver                                               BLAS
 DBCSR| Multrec recursion limit                                              512
 DBCSR| Multiplication stack size                                           1000
 DBCSR| Maximum elements for images                                    UNLIMITED
 DBCSR| Multiplicative factor virtual images                                   1
 DBCSR| Multiplication size stacks                                             3
 DBCSR| Number of 3D layers                                               SINGLE
 DBCSR| Use MPI memory allocation                                              T
 DBCSR| Use RMA algorithm                                                      F
 DBCSR| Use Communication thread                                               T
 DBCSR| Communication thread load                                             87


  **** **** ******  **  PROGRAM STARTED AT               2019-02-15 22:47:19.558
 ***** ** ***  *** **   PROGRAM STARTED ON                                  f275
 **    ****   ******    PROGRAM STARTED BY                                ongari
 ***** **    ** ** **   PROGRAM PROCESS ID                                 13688
  **** **  *******  **  PROGRAM STARTED IN /scratch/ongari/aiida_run/e8/3c/92a8-
                                           94b5-4be2-8c8c-a1373550c36a

 CP2K| version string:                                          CP2K version 5.1
 CP2K| source code revision number:                                    svn:18091
 CP2K| cp2kflags: libint fftw3 pexsi parallel mpi3 scalapack libderiv_max_am1=5 
 CP2K|            libint_max_am=6
 CP2K| is freely available from                            https://www.cp2k.org/
 CP2K| Program compiled at                          Thu Jul 5 11:15:01 CEST 2018
 CP2K| Program compiled on                                                  f016
 CP2K| Program compiled for                  linux-rhel7-x86_E5v4_Mellanox-intel
 CP2K| Data directory path            /home/ongari/aiida-database/data/cp2k/data
 CP2K| Input file name                                                 aiida.inp
 
 GLOBAL| Force Environment number                                              1
 GLOBAL| Basis set file name                                        BASIS_MOLOPT
 GLOBAL| Potential file name                                      GTH_POTENTIALS
 GLOBAL| MM Potential file name                                     MM_POTENTIAL
 GLOBAL| Coordinate file name                                   aiida.coords.xyz
 GLOBAL| Method name                                                        CP2K
 GLOBAL| Project name                                                      aiida
 GLOBAL| Preferred FFT library                                             FFTW3
 GLOBAL| Preferred diagonalization lib.                                       SL
 GLOBAL| Run type                                                       CELL_OPT
 GLOBAL| All-to-all communication in single precision                          F
 GLOBAL| FFTs using library dependent lengths                                  T
 GLOBAL| Global print level                                               MEDIUM
 GLOBAL| Total number of message passing processes                            56
 GLOBAL| Number of threads for this process                                    1
 GLOBAL| This output is from process                                           0
 GLOBAL| CPU model name :  Intel(R) Xeon(R) CPU E5-2690 v4 @ 2.60GHz

 MEMORY| system memory details [Kb]
 MEMORY|                        rank 0           min           max       average
 MEMORY| MemTotal            131627068     131627068     131627068     131627068
 MEMORY| MemFree             114721872     114125508     114721872     114423690
 MEMORY| Buffers                  6292          4200          6292          5246
 MEMORY| Cached                 267008        266404        501464        383955
 MEMORY| Slab                  1344800       1344800       1392472       1368636
 MEMORY| SReclaimable            59980         59980         72324         66152
 MEMORY| MemLikelyFree       115055152     114703496     115055152     114879043


 *** Fundamental physical constants (SI units) ***

 *** Literature: B. J. Mohr and B. N. Taylor,
 ***             CODATA recommended values of the fundamental physical
 ***             constants: 2006, Web Version 5.1
 ***             http://physics.nist.gov/constants

 Speed of light in vacuum [m/s]                             2.99792458000000E+08
 Magnetic constant or permeability of vacuum [N/A**2]       1.25663706143592E-06
 Electric constant or permittivity of vacuum [F/m]          8.85418781762039E-12
 Planck constant (h) [J*s]                                  6.62606896000000E-34
 Planck constant (h-bar) [J*s]                              1.05457162825177E-34
 Elementary charge [C]                                      1.60217648700000E-19
 Electron mass [kg]                                         9.10938215000000E-31
 Electron g factor [ ]                                     -2.00231930436220E+00
 Proton mass [kg]                                           1.67262163700000E-27
 Fine-structure constant                                    7.29735253760000E-03
 Rydberg constant [1/m]                                     1.09737315685270E+07
 Avogadro constant [1/mol]                                  6.02214179000000E+23
 Boltzmann constant [J/K]                                   1.38065040000000E-23
 Atomic mass unit [kg]                                      1.66053878200000E-27
 Bohr radius [m]                                            5.29177208590000E-11

 *** Conversion factors ***

 [u] -> [a.u.]                                              1.82288848426455E+03
 [Angstrom] -> [Bohr] = [a.u.]                              1.88972613288564E+00
 [a.u.] = [Bohr] -> [Angstrom]                              5.29177208590000E-01
 [a.u.] -> [s]                                              2.41888432650478E-17
 [a.u.] -> [fs]                                             2.41888432650478E-02
 [a.u.] -> [J]                                              4.35974393937059E-18
 [a.u.] -> [N]                                              8.23872205491840E-08
 [a.u.] -> [K]                                              3.15774647902944E+05
 [a.u.] -> [kJ/mol]                                         2.62549961709828E+03
 [a.u.] -> [kcal/mol]                                       6.27509468713739E+02
 [a.u.] -> [Pa]                                             2.94210107994716E+13
 [a.u.] -> [bar]                                            2.94210107994716E+08
 [a.u.] -> [atm]                                            2.90362800883016E+08
 [a.u.] -> [eV]                                             2.72113838565563E+01
 [a.u.] -> [Hz]                                             6.57968392072181E+15
 [a.u.] -> [1/cm] (wave numbers)                            2.19474631370540E+05
 [a.u./Bohr**2] -> [1/cm]                                   5.14048714338585E+03
 

 CELL_TOP| Volume [angstrom^3]:                                         1247.401
 CELL_TOP| Vector a [angstrom    15.413     0.016    -0.087    |a| =      15.414
 CELL_TOP| Vector b [angstrom    -7.695    13.035    -0.073    |b| =      15.137
 CELL_TOP| Vector c [angstrom    -0.036    -0.055     6.206    |c| =       6.206
 CELL_TOP| Angle (b,c), alpha [degree]:                                   90.547
 CELL_TOP| Angle (a,c), beta  [degree]:                                   90.657
 CELL_TOP| Angle (a,b), gamma [degree]:                                  120.494
 CELL_TOP| Numerically orthorhombic:                                          NO
 
 GENERATE|  Preliminary Number of Bonds generated:                             0
 GENERATE|  Achieved consistency in connectivity generation.

 CELL| Volume [angstrom^3]:                                             1247.401
 CELL| Vector a [angstrom]:      15.413     0.016    -0.087    |a| =      15.414
 CELL| Vector b [angstrom]:      -7.695    13.035    -0.073    |b| =      15.137
 CELL| Vector c [angstrom]:      -0.036    -0.055     6.206    |c| =       6.206
 CELL| Angle (b,c), alpha [degree]:                                       90.547
 CELL| Angle (a,c), beta  [degree]:                                       90.657
 CELL| Angle (a,b), gamma [degree]:                                      120.494
 CELL| Numerically orthorhombic:                                              NO

 CELL_REF| Volume [angstrom^3]:                                         1247.401
 CELL_REF| Vector a [angstrom    15.413     0.016    -0.087    |a| =      15.414
 CELL_REF| Vector b [angstrom    -7.695    13.035    -0.073    |b| =      15.137
 CELL_REF| Vector c [angstrom    -0.036    -0.055     6.206    |c| =       6.206
 CELL_REF| Angle (b,c), alpha [degree]:                                   90.547
 CELL_REF| Angle (a,c), beta  [degree]:                                   90.657
 CELL_REF| Angle (a,b), gamma [degree]:                                  120.494
 CELL_REF| Numerically orthorhombic:                                          NO

 *******************************************************************************
 *******************************************************************************
 **                                                                           **
 **     #####                         ##              ##                      **
 **    ##   ##            ##          ##              ##                      **
 **   ##     ##                       ##            ######                    **
 **   ##     ##  ##   ##  ##   #####  ##  ##   ####   ##    #####    #####    **
 **   ##     ##  ##   ##  ##  ##      ## ##   ##      ##   ##   ##  ##   ##   **
 **   ##  ## ##  ##   ##  ##  ##      ####     ###    ##   ######   ######    **
 **    ##  ###   ##   ##  ##  ##      ## ##      ##   ##   ##       ##        **
 **     #######   #####   ##   #####  ##  ##  ####    ##    #####   ##        **
 **           ##                                                    ##        **
 **                                                                           **
 **                                                ... make the atoms dance   **
 **                                                                           **
 **            Copyright (C) by CP2K developers group (2000 - 2017)           **
 **                                                                           **
 *******************************************************************************

 DFT| Spin restricted Kohn-Sham (RKS) calculation                            RKS
 DFT| Multiplicity                                                             1
 DFT| Number of spin states                                                    1
 DFT| Charge                                                                   0
 DFT| Self-interaction correction (SIC)                                       NO
 DFT| Cutoffs: density                                              1.000000E-10
 DFT|          gradient                                             1.000000E-10
 DFT|          tau                                                  1.000000E-10
 DFT|          cutoff_smoothing_range                               0.000000E+00
 DFT| XC density smoothing                                                  NONE
 DFT| XC derivatives                                                          PW
 FUNCTIONAL| ROUTINE=NEW
 FUNCTIONAL| PBE:
 FUNCTIONAL| J.P.Perdew, K.Burke, M.Ernzerhof, Phys. Rev. Letter, vol. 77, n 18,
 FUNCTIONAL|  pp. 3865-3868, (1996){spin unpolarized}                           
 vdW POTENTIAL|                                                   Pair Potential
 vdW POTENTIAL|          DFT-D3 (Version 3.1)
 vdW POTENTIAL|          Potential Form: S. Grimme et al, JCP 132: 154104 (2010)
 vdW POTENTIAL|          BJ Damping: S. Grimme et al, JCC 32: 1456 (2011)
 vdW POTENTIAL|          Cutoff Radius [Bohr]:                             20.00
 vdW POTENTIAL|          s6 Scaling Factor:                               1.0000
 vdW POTENTIAL|          a1 Damping Factor:                               0.4289
 vdW POTENTIAL|          s8 Scaling Factor:                               0.7875
 vdW POTENTIAL|          a2 Damping Factor:                               4.4407
 vdW POTENTIAL|          Cutoff for CN calculation:                   0.1000E-05

 QS| Method:                                                                 GPW
 QS| Density plane wave grid type                        NON-SPHERICAL FULLSPACE
 QS| Number of grid levels:                                                    4
 QS| Density cutoff [a.u.]:                                                300.0
 QS| Multi grid cutoff [a.u.]: 1) grid level                               300.0
 QS|                           2) grid level                               100.0
 QS|                           3) grid level                                33.3
 QS|                           4) grid level                                11.1
 QS| Grid level progression factor:                                          3.0
 QS| Relative density cutoff [a.u.]:                                        25.0
 QS| Consistent realspace mapping and integration 
 QS| Interaction thresholds: eps_pgf_orb:                                1.0E-05
 QS|                         eps_filter_matrix:                          0.0E+00
 QS|                         eps_core_charge:                            1.0E-12
 QS|                         eps_rho_gspace:                             1.0E-10
 QS|                         eps_rho_rspace:                             1.0E-10
 QS|                         eps_gvg_rspace:                             1.0E-05
 QS|                         eps_ppl:                                    1.0E-02
 QS|                         eps_ppnl:                                   1.0E-07


 ATOMIC KIND INFORMATION

  1. Atomic kind: B                                     Number of atoms:      12

     Orbital Basis Set                                     DZVP-MOLOPT-SR-GTH-q3

       Number of orbital shell sets:                                           1
       Number of orbital shells:                                               5
       Number of primitive Cartesian functions:                                4
       Number of Cartesian basis functions:                                   14
       Number of spherical basis functions:                                   13
       Norm type:                                                              2

       Normalised Cartesian orbitals:

                        Set   Shell   Orbital            Exponent    Coefficient

                          1       1    2s                3.053444       0.252402
                                                         0.915484       0.050494
                                                         0.329920      -0.219689
                                                         0.101655      -0.057697

                          1       2    3s                3.053444      -0.889751
                                                         0.915484      -0.125118
                                                         0.329920       0.537314
                                                         0.101655      -0.211019

                          1       3    3px               3.053444      -0.570049
                                                         0.915484      -0.388730
                                                         0.329920      -0.182602
                                                         0.101655      -0.024010
                          1       3    3py               3.053444      -0.570049
                                                         0.915484      -0.388730
                                                         0.329920      -0.182602
                                                         0.101655      -0.024010
                          1       3    3pz               3.053444      -0.570049
                                                         0.915484      -0.388730
                                                         0.329920      -0.182602
                                                         0.101655      -0.024010

                          1       4    4px               3.053444      -0.595374
                                                         0.915484      -0.502823
                                                         0.329920      -0.128778
                                                         0.101655       0.089873
                          1       4    4py               3.053444      -0.595374
                                                         0.915484      -0.502823
                                                         0.329920      -0.128778
                                                         0.101655       0.089873
                          1       4    4pz               3.053444      -0.595374
                                                         0.915484      -0.502823
                                                         0.329920      -0.128778
                                                         0.101655       0.089873

                          1       5    4dx2              3.053444      -0.371712
                                                         0.915484      -0.428539
                                                         0.329920      -0.123001
                                                         0.101655      -0.011638
                          1       5    4dxy              3.053444      -0.643825
                                                         0.915484      -0.742250
                                                         0.329920      -0.213044
                                                         0.101655      -0.020158
                          1       5    4dxz              3.053444      -0.643825
                                                         0.915484      -0.742250
                                                         0.329920      -0.213044
                                                         0.101655      -0.020158
                          1       5    4dy2              3.053444      -0.371712
                                                         0.915484      -0.428539
                                                         0.329920      -0.123001
                                                         0.101655      -0.011638
                          1       5    4dyz              3.053444      -0.643825
                                                         0.915484      -0.742250
                                                         0.329920      -0.213044
                                                         0.101655      -0.020158
                          1       5    4dz2              3.053444      -0.371712
                                                         0.915484      -0.428539
                                                         0.329920      -0.123001
                                                         0.101655      -0.011638

     GTH Potential information for                                    GTH-PBE-q3

       Description:                       Goedecker-Teter-Hutter pseudopotential
                                           Goedecker et al., PRB 54, 1703 (1996)
                                          Hartwigsen et al., PRB 58, 3641 (1998)
                                                      Krack, TCA 114, 145 (2005)

       Gaussian exponent of the core charge distribution:               2.848129
       Electronic configuration (s p d ...):                               2   1

       Parameters of the local part of the GTH pseudopotential:

                          rloc        C1          C2          C3          C4
                        0.418991   -5.859462    0.903756

       Parameters of the non-local part of the GTH pseudopotential:

                   l      r(l)      h(i,j,l)

                   0    0.371320    6.297280
                   1    0.364563

  2. Atomic kind: O                                     Number of atoms:      12

     Orbital Basis Set                                     DZVP-MOLOPT-SR-GTH-q6

       Number of orbital shell sets:                                           1
       Number of orbital shells:                                               5
       Number of primitive Cartesian functions:                                5
       Number of Cartesian basis functions:                                   14
       Number of spherical basis functions:                                   13
       Norm type:                                                              2

       Normalised Cartesian orbitals:

                        Set   Shell   Orbital            Exponent    Coefficient

                          1       1    2s               10.389228       0.396646
                                                         3.849621       0.208811
                                                         1.388401      -0.301641
                                                         0.496955      -0.274061
                                                         0.162492      -0.033677

                          1       2    3s               10.389228       0.303673
                                                         3.849621       0.240943
                                                         1.388401      -0.313066
                                                         0.496955      -0.043055
                                                         0.162492       0.213991

                          1       3    3px              10.389228      -1.530415
                                                         3.849621      -1.371928
                                                         1.388401      -0.761951
                                                         0.496955      -0.253695
                                                         0.162492      -0.035541
                          1       3    3py              10.389228      -1.530415
                                                         3.849621      -1.371928
                                                         1.388401      -0.761951
                                                         0.496955      -0.253695
                                                         0.162492      -0.035541
                          1       3    3pz              10.389228      -1.530415
                                                         3.849621      -1.371928
                                                         1.388401      -0.761951
                                                         0.496955      -0.253695
                                                         0.162492      -0.035541

                          1       4    4px              10.389228      -0.565392
                                                         3.849621      -0.038231
                                                         1.388401      -0.382373
                                                         0.496955       0.179070
                                                         0.162492       0.122714
                          1       4    4py              10.389228      -0.565392
                                                         3.849621      -0.038231
                                                         1.388401      -0.382373
                                                         0.496955       0.179070
                                                         0.162492       0.122714
                          1       4    4pz              10.389228      -0.565392
                                                         3.849621      -0.038231
                                                         1.388401      -0.382373
                                                         0.496955       0.179070
                                                         0.162492       0.122714

                          1       5    4dx2             10.389228       1.867377
                                                         3.849621       0.670994
                                                         1.388401       1.353441
                                                         0.496955       0.273538
                                                         0.162492       0.006620
                          1       5    4dxy             10.389228       3.234392
                                                         3.849621       1.162195
                                                         1.388401       2.344229
                                                         0.496955       0.473781
                                                         0.162492       0.011466
                          1       5    4dxz             10.389228       3.234392
                                                         3.849621       1.162195
                                                         1.388401       2.344229
                                                         0.496955       0.473781
                                                         0.162492       0.011466
                          1       5    4dy2             10.389228       1.867377
                                                         3.849621       0.670994
                                                         1.388401       1.353441
                                                         0.496955       0.273538
                                                         0.162492       0.006620
                          1       5    4dyz             10.389228       3.234392
                                                         3.849621       1.162195
                                                         1.388401       2.344229
                                                         0.496955       0.473781
                                                         0.162492       0.011466
                          1       5    4dz2             10.389228       1.867377
                                                         3.849621       0.670994
                                                         1.388401       1.353441
                                                         0.496955       0.273538
                                                         0.162492       0.006620

     GTH Potential information for                                    GTH-PBE-q6

       Description:                       Goedecker-Teter-Hutter pseudopotential
                                           Goedecker et al., PRB 54, 1703 (1996)
                                          Hartwigsen et al., PRB 58, 3641 (1998)
                                                      Krack, TCA 114, 145 (2005)

       Gaussian exponent of the core charge distribution:               8.360253
       Electronic configuration (s p d ...):                               2   4

       Parameters of the local part of the GTH pseudopotential:

                          rloc        C1          C2          C3          C4
                        0.244554  -16.667215    2.487311

       Parameters of the non-local part of the GTH pseudopotential:

                   l      r(l)      h(i,j,l)

                   0    0.220956   18.337458
                   1    0.211332

  3. Atomic kind: C                                     Number of atoms:      36

     Orbital Basis Set                                     DZVP-MOLOPT-SR-GTH-q4

       Number of orbital shell sets:                                           1
       Number of orbital shells:                                               5
       Number of primitive Cartesian functions:                                5
       Number of Cartesian basis functions:                                   14
       Number of spherical basis functions:                                   13
       Norm type:                                                              2

       Normalised Cartesian orbitals:

                        Set   Shell   Orbital            Exponent    Coefficient

                          1       1    2s                5.605331       0.322515
                                                         2.113016       0.213043
                                                         0.769911      -0.209686
                                                         0.348157      -0.219794
                                                         0.128212      -0.022789

                          1       2    3s                5.605331       0.552234
                                                         2.113016       0.082072
                                                         0.769911       0.007843
                                                         0.348157       0.136893
                                                         0.128212       0.074283

                          1       3    3px               5.605331      -0.703879
                                                         2.113016      -0.642521
                                                         0.769911      -0.374851
                                                         0.348157      -0.139743
                                                         0.128212      -0.027849
                          1       3    3py               5.605331      -0.703879
                                                         2.113016      -0.642521
                                                         0.769911      -0.374851
                                                         0.348157      -0.139743
                                                         0.128212      -0.027849
                          1       3    3pz               5.605331      -0.703879
                                                         2.113016      -0.642521
                                                         0.769911      -0.374851
                                                         0.348157      -0.139743
                                                         0.128212      -0.027849

                          1       4    4px               5.605331      -0.480376
                                                         2.113016      -0.552894
                                                         0.769911      -0.316145
                                                         0.348157       0.210505
                                                         0.128212       0.076095
                          1       4    4py               5.605331      -0.480376
                                                         2.113016      -0.552894
                                                         0.769911      -0.316145
                                                         0.348157       0.210505
                                                         0.128212       0.076095
                          1       4    4pz               5.605331      -0.480376
                                                         2.113016      -0.552894
                                                         0.769911      -0.316145
                                                         0.348157       0.210505
                                                         0.128212       0.076095

                          1       5    4dx2              5.605331       0.640026
                                                         2.113016       0.274300
                                                         0.769911       0.446711
                                                         0.348157       0.028674
                                                         0.128212       0.029790
                          1       5    4dxy              5.605331       1.108557
                                                         2.113016       0.475102
                                                         0.769911       0.773726
                                                         0.348157       0.049666
                                                         0.128212       0.051599
                          1       5    4dxz              5.605331       1.108557
                                                         2.113016       0.475102
                                                         0.769911       0.773726
                                                         0.348157       0.049666
                                                         0.128212       0.051599
                          1       5    4dy2              5.605331       0.640026
                                                         2.113016       0.274300
                                                         0.769911       0.446711
                                                         0.348157       0.028674
                                                         0.128212       0.029790
                          1       5    4dyz              5.605331       1.108557
                                                         2.113016       0.475102
                                                         0.769911       0.773726
                                                         0.348157       0.049666
                                                         0.128212       0.051599
                          1       5    4dz2              5.605331       0.640026
                                                         2.113016       0.274300
                                                         0.769911       0.446711
                                                         0.348157       0.028674
                                                         0.128212       0.029790

     GTH Potential information for                                    GTH-PBE-q4

       Description:                       Goedecker-Teter-Hutter pseudopotential
                                           Goedecker et al., PRB 54, 1703 (1996)
                                          Hartwigsen et al., PRB 58, 3641 (1998)
                                                      Krack, TCA 114, 145 (2005)

       Gaussian exponent of the core charge distribution:               4.364419
       Electronic configuration (s p d ...):                               2   2

       Parameters of the local part of the GTH pseudopotential:

                          rloc        C1          C2          C3          C4
                        0.338471   -8.803674    1.339211

       Parameters of the non-local part of the GTH pseudopotential:

                   l      r(l)      h(i,j,l)

                   0    0.302576    9.622487
                   1    0.291507

  4. Atomic kind: H                                     Number of atoms:      24

     Orbital Basis Set                                     DZVP-MOLOPT-SR-GTH-q1

       Number of orbital shell sets:                                           1
       Number of orbital shells:                                               3
       Number of primitive Cartesian functions:                                5
       Number of Cartesian basis functions:                                    5
       Number of spherical basis functions:                                    5
       Norm type:                                                              2

       Normalised Cartesian orbitals:

                        Set   Shell   Orbital            Exponent    Coefficient

                          1       1    2s               10.068468      -0.133023
                                                         2.680223      -0.177618
                                                         0.791502      -0.258419
                                                         0.239116      -0.107525
                                                         0.082193      -0.014019

                          1       2    3s               10.068468       0.344673
                                                         2.680223       1.819821
                                                         0.791502      -0.999069
                                                         0.239116       0.017430
                                                         0.082193       0.082660

                          1       3    3px              10.068468       0.155326
                                                         2.680223       0.367157
                                                         0.791502       0.311480
                                                         0.239116       0.080105
                                                         0.082193       0.033440
                          1       3    3py              10.068468       0.155326
                                                         2.680223       0.367157
                                                         0.791502       0.311480
                                                         0.239116       0.080105
                                                         0.082193       0.033440
                          1       3    3pz              10.068468       0.155326
                                                         2.680223       0.367157
                                                         0.791502       0.311480
                                                         0.239116       0.080105
                                                         0.082193       0.033440

     GTH Potential information for                                    GTH-PBE-q1

       Description:                       Goedecker-Teter-Hutter pseudopotential
                                           Goedecker et al., PRB 54, 1703 (1996)
                                          Hartwigsen et al., PRB 58, 3641 (1998)
                                                      Krack, TCA 114, 145 (2005)

       Gaussian exponent of the core charge distribution:              12.500000
       Electronic configuration (s p d ...):                                   1

       Parameters of the local part of the GTH pseudopotential:

                          rloc        C1          C2          C3          C4
                        0.200000   -4.178900    0.724463


 MOLECULE KIND INFORMATION


 All atoms are their own molecule, skipping detailed information


 TOTAL NUMBERS AND MAXIMUM NUMBERS

  Total number of            - Atomic kinds:                                   4
                             - Atoms:                                         84
                             - Shell sets:                                    84
                             - Shells:                                       372
                             - Primitive Cartesian functions:                408
                             - Cartesian basis functions:                    960
                             - Spherical basis functions:                    900

  Maximum angular momentum of- Orbital basis functions:                        2
                             - Local part of the GTH pseudopotential:          2
                             - Non-local part of the GTH pseudopotential:      0


 MODULE QUICKSTEP:  ATOMIC COORDINATES IN angstrom

  Atom  Kind  Element       X           Y           Z          Z(eff)       Mass

       1     1 B    5   -0.183311    1.303670    1.449927      3.00      10.8110
       2     2 O    8   -0.022425   10.046545    1.702119      6.00      15.9994
       3     3 C    6    0.310727    5.685919    1.586494      4.00      12.0107
       4     1 B    5    6.448625   12.229600    1.332002      3.00      10.8110
       5     2 O    8   -0.935744    7.890663    1.560394      6.00      15.9994
       6     3 C    6    2.525830   10.277573    1.369397      4.00      12.0107
       7     1 B    5   -6.570024   12.229628    1.490851      3.00      10.8110
       8     2 O    8    1.379349    8.126547    1.378232      6.00      15.9994
       9     3 C    6   -2.632624    9.975875    1.253320      4.00      12.0107
      10     1 B    5    7.605646   11.689155    4.516491      3.00      10.8110
      11     2 O    8    7.805337    2.963845    4.176231      6.00      15.9994
      12     3 C    6    7.652956    7.331601    4.616576      4.00      12.0107
      13     1 B    5    1.173932    0.618852    4.902977      3.00      10.8110
      14     2 O    8    8.764715    5.108767    4.666768      6.00      15.9994
      15     3 C    6    5.218403    2.757559    4.636357      4.00      12.0107
      16     1 B    5   14.124256    0.820613    4.713450      3.00      10.8110
      17     2 O    8    6.377240    4.935970    4.697130      6.00      15.9994
      18     3 C    6   10.323229    2.975203    4.496819      4.00      12.0107
      19     1 B    5    1.198584    9.493255    1.459188      3.00      10.8110
      20     1 B    5   -1.152355    9.267230    1.528734      3.00      10.8110
      21     1 B    5    0.312776    7.251981    1.591412      3.00      10.8110
      22     1 B    5    6.566166    3.539734    4.452521      3.00      10.8110
      23     1 B    5    8.974029    3.764835    4.399624      3.00      10.8110
      24     1 B    5    7.496347    5.740107    4.667595      3.00      10.8110
      25     2 O    8    1.007107    0.629664    1.447567      6.00      15.9994
      26     2 O    8   14.043730    0.560380    1.461293      6.00      15.9994
      27     2 O    8    7.655736   11.543645    1.557228      6.00      15.9994
      28     2 O    8    6.422676   12.472121    4.479503      6.00      15.9994
      29     2 O    8   -6.573944   12.264519    4.855864      6.00      15.9994
      30     2 O    8   -0.006496    1.415973    4.845814      6.00      15.9994
      31     3 C    6   -0.977008    5.056799    1.491429      4.00      12.0107
      32     3 C    6    1.315397    3.443741    1.314231      4.00      12.0107
      33     4 H    1   -1.921290    5.653917    1.410718      1.00       1.0079
      34     4 H    1    2.210026    2.781419    1.307871      1.00       1.0079
      35     3 C    6    3.670624    9.582634    0.975431      4.00      12.0107
      36     3 C    6    3.937582   12.249881    1.639698      4.00      12.0107
      37     4 H    1    3.514133    8.567462    0.676552      1.00       1.0079
      38     4 H    1   11.701767    0.305463    1.918388      1.00       1.0079
      39     3 C    6   -2.708035   11.405184    0.969678      4.00      12.0107
      40     3 C    6   -5.095436   10.070092    1.672380      4.00      12.0107
      41     4 H    1   -1.752690   11.973269    0.884209      1.00       1.0079
      42     4 H    1    9.391920    9.560552    1.872989      1.00       1.0079
      43     3 C    6    8.866887    8.033657    4.600123      4.00      12.0107
      44     3 C    6    6.399948    9.408743    4.517461      4.00      12.0107
      45     4 H    1    9.797122    7.522458    4.448245      1.00       1.0079
      46     4 H    1    5.483576    9.986186    4.560770      1.00       1.0079
      47     3 C    6    3.947267    3.480337    4.700419      4.00      12.0107
      48     3 C    6    3.781504    0.725300    4.778525      4.00      12.0107
      49     4 H    1    4.060222    4.544642    4.678670      1.00       1.0079
      50     4 H    1   -3.957610   12.731593    4.973929      1.00       1.0079
      51     3 C    6   10.292047    1.626723    4.857482      4.00      12.0107
      52     3 C    6   12.766731    2.967641    4.517099      4.00      12.0107
      53     4 H    1    9.424942    1.050655    4.858380      1.00       1.0079
      54     4 H    1   -1.721737    3.600598    4.593738      1.00       1.0079
      55     3 C    6    5.037375    1.367965    4.682492      4.00      12.0107
      56     3 C    6    2.724856    2.814341    4.758093      4.00      12.0107
      57     4 H    1    5.893353    0.729405    4.929366      1.00       1.0079
      58     4 H    1    1.821273    3.415889    4.680244      1.00       1.0079
      59     3 C    6    6.421226    8.033602    4.612695      4.00      12.0107
      60     3 C    6    8.882624    9.451046    4.417533      4.00      12.0107
      61     4 H    1    5.525223    7.423649    4.573212      1.00       1.0079
      62     4 H    1   -5.662966   10.066690    4.452500      1.00       1.0079
      63     3 C    6   11.573897    3.643804    4.314855      4.00      12.0107
      64     3 C    6   11.485076    0.921144    4.961312      4.00      12.0107
      65     4 H    1   11.631661    4.719605    4.336613      1.00       1.0079
      66     4 H    1    3.703561   12.876295    5.194869      1.00       1.0079
      67     3 C    6    2.684268   11.583455    1.743796      4.00      12.0107
      68     3 C    6    4.907051   10.207684    0.930823      4.00      12.0107
      69     4 H    1    1.793395   12.027093    2.196262      1.00       1.0079
      70     4 H    1    5.738563    9.588603    0.652069      1.00       1.0079
      71     3 C    6    1.446308    4.823616    1.470828      4.00      12.0107
      72     3 C    6   -1.132601    3.693137    1.329831      4.00      12.0107
      73     4 H    1    2.510330    5.174258    1.439310      1.00       1.0079
      74     4 H    1   13.282674    3.366187    1.201357      1.00       1.0079
      75     3 C    6   -3.853778    9.346265    1.655351      4.00      12.0107
      76     3 C    6   -3.943709   12.088996    1.036787      4.00      12.0107
      77     4 H    1   -3.874662    8.253753    1.772039      1.00       1.0079
      78     4 H    1    3.722561    0.097386    1.059318      1.00       1.0079
      79     3 C    6   -5.166556   11.437787    1.448278      4.00      12.0107
      80     3 C    6    0.006702    2.818925    1.312878      4.00      12.0107
      81     3 C    6    5.058840   11.520834    1.296898      4.00      12.0107
      82     3 C    6   12.761398    1.584980    4.762656      4.00      12.0107
      83     3 C    6    7.612816   10.136968    4.366598      4.00      12.0107
      84     3 C    6    2.559417    1.431836    4.811006      4.00      12.0107




 SCF PARAMETERS         Density guess:                                   RESTART
                        --------------------------------------------------------
                        max_scf:                                              50
                        max_scf_history:                                       0
                        max_diis:                                              4
                        --------------------------------------------------------
                        eps_scf:                                        1.00E-06
                        eps_scf_history:                                0.00E+00
                        eps_diis:                                       1.00E-01
                        eps_eigval:                                     1.00E-05
                        --------------------------------------------------------
                        level_shift [a.u.]:                                 0.00
                        --------------------------------------------------------
                        Outer loop SCF in use 
                        No variables optimised in outer loop
                        eps_scf                                         1.00E-06
                        max_scf                                               10
                        No outer loop optimization
                        step_size                                       5.00E-01

 PW_GRID| Information for grid number                                          1
 PW_GRID| Grid distributed over                                    56 processors
 PW_GRID| Real space group dimensions                                    56    1
 PW_GRID| the grid is blocked:                                                NO
 PW_GRID| Cutoff [a.u.]                                                    300.0
 PW_GRID| spherical cutoff:                                                   NO
 PW_GRID|   Bounds   1           -115     115                Points:         231
 PW_GRID|   Bounds   2           -112     111                Points:         224
 PW_GRID|   Bounds   3            -48      47                Points:          96
 PW_GRID| Volume element (a.u.^3)  0.1695E-02     Volume (a.u.^3)      8417.8776
 PW_GRID| Grid span                                                    FULLSPACE
 PW_GRID|   Distribution                         Average         Max         Min
 PW_GRID|   G-Vectors                            88704.0       88704       88704
 PW_GRID|   G-Rays                                 384.0         384         384
 PW_GRID|   Real Space Points                    88704.0      107520       86016

 PW_GRID| Information for grid number                                          2
 PW_GRID| Grid distributed over                                    56 processors
 PW_GRID| Real space group dimensions                                    56    1
 PW_GRID| the grid is blocked:                                                NO
 PW_GRID| Cutoff [a.u.]                                                    100.0
 PW_GRID| spherical cutoff:                                                   NO
 PW_GRID|   Bounds   1            -66      65                Points:         132
 PW_GRID|   Bounds   2            -66      65                Points:         132
 PW_GRID|   Bounds   3            -27      26                Points:          54
 PW_GRID| Volume element (a.u.^3)  0.8947E-02     Volume (a.u.^3)      8417.8776
 PW_GRID| Grid span                                                    FULLSPACE
 PW_GRID|   Distribution                         Average         Max         Min
 PW_GRID|   G-Vectors                            16801.7       18348       15444
 PW_GRID|   G-Rays                                 127.3         139         117
 PW_GRID|   Real Space Points                    16801.7       21384       14256

 PW_GRID| Information for grid number                                          3
 PW_GRID| Grid distributed over                                    56 processors
 PW_GRID| Real space group dimensions                                    56    1
 PW_GRID| the grid is blocked:                                                NO
 PW_GRID| Cutoff [a.u.]                                                     33.3
 PW_GRID| spherical cutoff:                                                   NO
 PW_GRID|   Bounds   1            -37      37                Points:          75
 PW_GRID|   Bounds   2            -37      37                Points:          75
 PW_GRID|   Bounds   3            -16      15                Points:          32
 PW_GRID| Volume element (a.u.^3)  0.4677E-01     Volume (a.u.^3)      8417.8776
 PW_GRID| Grid span                                                    FULLSPACE
 PW_GRID|   Distribution                         Average         Max         Min
 PW_GRID|   G-Vectors                             3214.3        3450        2850
 PW_GRID|   G-Rays                                  42.9          46          38
 PW_GRID|   Real Space Points                     3214.3        4800        2400

 PW_GRID| Information for grid number                                          4
 PW_GRID| Grid distributed over                                    56 processors
 PW_GRID| Real space group dimensions                                     7    8
 PW_GRID| the grid is blocked:                                                NO
 PW_GRID| Cutoff [a.u.]                                                     11.1
 PW_GRID| spherical cutoff:                                                   NO
 PW_GRID|   Bounds   1            -22      21                Points:          44
 PW_GRID|   Bounds   2            -22      21                Points:          44
 PW_GRID|   Bounds   3             -9       8                Points:          18
 PW_GRID| Volume element (a.u.^3)  0.2416         Volume (a.u.^3)      8417.8776
 PW_GRID| Grid span                                                    FULLSPACE
 PW_GRID|   Distribution                         Average         Max         Min
 PW_GRID|   G-Vectors                              622.3         792         440
 PW_GRID|   G-Rays                                  14.1          18          10
 PW_GRID|   Real Space Points                      622.3         756         540

 POISSON| Solver                                                        PERIODIC
 POISSON| Periodicity                                                        XYZ

 RS_GRID| Information for grid number                                          1
 RS_GRID|   Bounds   1           -115     115                Points:         231
 RS_GRID|   Bounds   2           -112     111                Points:         224
 RS_GRID|   Bounds   3            -48      47                Points:          96
 RS_GRID| Real space distribution over                                  8 groups
 RS_GRID| Real space distribution along direction                              1
 RS_GRID| Border size                                                         40
 RS_GRID| Real space distribution over                                  7 groups
 RS_GRID| Real space distribution along direction                              2
 RS_GRID| Border size                                                         40
 RS_GRID|   Distribution                         Average         Max         Min
 RS_GRID|   Planes                                 108.9         109         108
 RS_GRID|   Distribution                         Average         Max         Min
 RS_GRID|   Planes                                 112.0         112         112

 RS_GRID| Information for grid number                                          2
 RS_GRID|   Bounds   1            -66      65                Points:         132
 RS_GRID|   Bounds   2            -66      65                Points:         132
 RS_GRID|   Bounds   3            -27      26                Points:          54
 RS_GRID| Real space distribution over                                  8 groups
 RS_GRID| Real space distribution along direction                              1
 RS_GRID| Border size                                                         36
 RS_GRID| Real space distribution over                                  7 groups
 RS_GRID| Real space distribution along direction                              2
 RS_GRID| Border size                                                         36
 RS_GRID|   Distribution                         Average         Max         Min
 RS_GRID|   Planes                                  88.5          89          88
 RS_GRID|   Distribution                         Average         Max         Min
 RS_GRID|   Planes                                  90.9          91          90

 RS_GRID| Information for grid number                                          3
 RS_GRID|   Bounds   1            -37      37                Points:          75
 RS_GRID|   Bounds   2            -37      37                Points:          75
 RS_GRID|   Bounds   3            -16      15                Points:          32
 RS_GRID| Real space fully replicated
 RS_GRID| Group size                                                           1

 RS_GRID| Information for grid number                                          4
 RS_GRID|   Bounds   1            -22      21                Points:          44
 RS_GRID|   Bounds   2            -22      21                Points:          44
 RS_GRID|   Bounds   3             -9       8                Points:          18
 RS_GRID| Real space fully replicated
 RS_GRID| Group size                                                           1

 DISTRIBUTION OF THE PARTICLES (ROWS)
              Process row      Number of particles         Number of matrix rows
                        0                       21                            -1
                        1                       21                            -1
                        2                       21                            -1
                        3                       21                            -1
                      Sum                       84                            -1

 DISTRIBUTION OF THE PARTICLES (COLUMNS)
              Process col      Number of particles      Number of matrix columns
                        0                        6                            -1
                        1                        6                            -1
                        2                        6                            -1
                        3                        6                            -1
                        4                        6                            -1
                        5                        6                            -1
                        6                        6                            -1
                        7                        6                            -1
                        8                        6                            -1
                        9                        6                            -1
                       10                        6                            -1
                       11                        6                            -1
                       12                        6                            -1
                       13                        6                            -1
                      Sum                       84                            -1

 *******************************************************************************
 ***                     STARTING   CELL   OPTIMIZATION                      ***
 ***                                 L-BFGS                                  ***
 *******************************************************************************

 --------------------------
 OPTIMIZATION STEP:      1
 --------------------------

 CELL| Volume [angstrom^3]:                                             1247.401
 CELL| Vector a [angstrom]:      15.414     0.000     0.000    |a| =      15.414
 CELL| Vector b [angstrom]:      -7.681    13.043     0.000    |b| =      15.137
 CELL| Vector c [angstrom]:      -0.071    -0.111     6.205    |c| =       6.206
 CELL| Angle (b,c), alpha [degree]:                                       90.547
 CELL| Angle (a,c), beta  [degree]:                                       90.657
 CELL| Angle (a,b), gamma [degree]:                                      120.494
 CELL| Numerically orthorhombic:                                              NO

 -------------------------------------------------------------------------------
 ----                             MULTIGRID INFO                            ----
 -------------------------------------------------------------------------------
 count for grid        1:         642432          cutoff [a.u.]          300.00
 count for grid        2:         495264          cutoff [a.u.]          100.00
 count for grid        3:         371392          cutoff [a.u.]           33.33
 count for grid        4:         128352          cutoff [a.u.]           11.11
 total gridlevel count  :        1637440

 PW_GRID| Information for grid number                                          5
 PW_GRID| Grid distributed over                                    56 processors
 PW_GRID| Real space group dimensions                                    56    1
 PW_GRID| the grid is blocked:                                                NO
 PW_GRID| Cutoff [a.u.]                                                    300.0
 PW_GRID| spherical cutoff:                                                   NO
 PW_GRID|   Bounds   1           -115     115                Points:         231
 PW_GRID|   Bounds   2           -112     111                Points:         224
 PW_GRID|   Bounds   3            -48      47                Points:          96
 PW_GRID| Volume element (a.u.^3)  0.1695E-02     Volume (a.u.^3)      8417.8776
 PW_GRID| Grid span                                                    FULLSPACE
 PW_GRID|   Distribution                         Average         Max         Min
 PW_GRID|   G-Vectors                            88704.0       88704       88704
 PW_GRID|   G-Rays                                 384.0         384         384
 PW_GRID|   Real Space Points                    88704.0      107520       86016

 PW_GRID| Information for grid number                                          6
 PW_GRID| Grid distributed over                                    56 processors
 PW_GRID| Real space group dimensions                                    56    1
 PW_GRID| the grid is blocked:                                                NO
 PW_GRID| Cutoff [a.u.]                                                    100.0
 PW_GRID| spherical cutoff:                                                   NO
 PW_GRID|   Bounds   1            -66      65                Points:         132
 PW_GRID|   Bounds   2            -66      65                Points:         132
 PW_GRID|   Bounds   3            -27      26                Points:          54
 PW_GRID| Volume element (a.u.^3)  0.8947E-02     Volume (a.u.^3)      8417.8776
 PW_GRID| Grid span                                                    FULLSPACE
 PW_GRID|   Distribution                         Average         Max         Min
 PW_GRID|   G-Vectors                            16801.7       18348       15444
 PW_GRID|   G-Rays                                 127.3         139         117
 PW_GRID|   Real Space Points                    16801.7       21384       14256

 PW_GRID| Information for grid number                                          7
 PW_GRID| Grid distributed over                                    56 processors
 PW_GRID| Real space group dimensions                                    56    1
 PW_GRID| the grid is blocked:                                                NO
 PW_GRID| Cutoff [a.u.]                                                     33.3
 PW_GRID| spherical cutoff:                                                   NO
 PW_GRID|   Bounds   1            -37      37                Points:          75
 PW_GRID|   Bounds   2            -37      37                Points:          75
 PW_GRID|   Bounds   3            -16      15                Points:          32
 PW_GRID| Volume element (a.u.^3)  0.4677E-01     Volume (a.u.^3)      8417.8776
 PW_GRID| Grid span                                                    FULLSPACE
 PW_GRID|   Distribution                         Average         Max         Min
 PW_GRID|   G-Vectors                             3214.3        3450        2850
 PW_GRID|   G-Rays                                  42.9          46          38
 PW_GRID|   Real Space Points                     3214.3        4800        2400

 PW_GRID| Information for grid number                                          8
 PW_GRID| Grid distributed over                                    56 processors
 PW_GRID| Real space group dimensions                                     7    8
 PW_GRID| the grid is blocked:                                                NO
 PW_GRID| Cutoff [a.u.]                                                     11.1
 PW_GRID| spherical cutoff:                                                   NO
 PW_GRID|   Bounds   1            -22      21                Points:          44
 PW_GRID|   Bounds   2            -22      21                Points:          44
 PW_GRID|   Bounds   3             -9       8                Points:          18
 PW_GRID| Volume element (a.u.^3)  0.2416         Volume (a.u.^3)      8417.8776
 PW_GRID| Grid span                                                    FULLSPACE
 PW_GRID|   Distribution                         Average         Max         Min
 PW_GRID|   G-Vectors                              622.3         792         440
 PW_GRID|   G-Rays                                  14.1          18          10
 PW_GRID|   Real Space Points                      622.3         756         540

 POISSON| Solver                                                        PERIODIC
 POISSON| Periodicity                                                        XYZ

 RS_GRID| Information for grid number                                          5
 RS_GRID|   Bounds   1           -115     115                Points:         231
 RS_GRID|   Bounds   2           -112     111                Points:         224
 RS_GRID|   Bounds   3            -48      47                Points:          96
 RS_GRID| Real space distribution over                                  8 groups
 RS_GRID| Real space distribution along direction                              1
 RS_GRID| Border size                                                         40
 RS_GRID| Real space distribution over                                  7 groups
 RS_GRID| Real space distribution along direction                              2
 RS_GRID| Border size                                                         40
 RS_GRID|   Distribution                         Average         Max         Min
 RS_GRID|   Planes                                 108.9         109         108
 RS_GRID|   Distribution                         Average         Max         Min
 RS_GRID|   Planes                                 112.0         112         112

 RS_GRID| Information for grid number                                          6
 RS_GRID|   Bounds   1            -66      65                Points:         132
 RS_GRID|   Bounds   2            -66      65                Points:         132
 RS_GRID|   Bounds   3            -27      26                Points:          54
 RS_GRID| Real space distribution over                                  8 groups
 RS_GRID| Real space distribution along direction                              1
 RS_GRID| Border size                                                         36
 RS_GRID| Real space distribution over                                  7 groups
 RS_GRID| Real space distribution along direction                              2
 RS_GRID| Border size                                                         36
 RS_GRID|   Distribution                         Average         Max         Min
 RS_GRID|   Planes                                  88.5          89          88
 RS_GRID|   Distribution                         Average         Max         Min
 RS_GRID|   Planes                                  90.9          91          90

 RS_GRID| Information for grid number                                          7
 RS_GRID|   Bounds   1            -37      37                Points:          75
 RS_GRID|   Bounds   2            -37      37                Points:          75
 RS_GRID|   Bounds   3            -16      15                Points:          32
 RS_GRID| Real space fully replicated
 RS_GRID| Group size                                                           1

 RS_GRID| Information for grid number                                          8
 RS_GRID|   Bounds   1            -22      21                Points:          44
 RS_GRID|   Bounds   2            -22      21                Points:          44
 RS_GRID|   Bounds   3             -9       8                Points:          18
 RS_GRID| Real space fully replicated
 RS_GRID| Group size                                                           1

 DISTRIBUTION OF THE NEIGHBOR LISTS
              Total number of particle pairs:                              16857
              Total number of matrix elements:                           1818273
              Average number of particle pairs:                              302
              Maximum number of particle pairs:                              372
              Average number of matrix element:                            32470
              Maximum number of matrix elements:                           43524


 DISTRIBUTION OF THE OVERLAP MATRIX
              Number  of non-zero blocks:                                   3567
              Percentage non-zero blocks:                                  99.92
              Average number of blocks per CPU:                               64
              Maximum number of blocks per CPU:                               70
              Average number of matrix elements per CPU:                    7329
              Maximum number of matrix elements per CPU:                    9864

 Number of electrons:                                                        276
 Number of occupied orbitals:                                                138
 Number of molecular orbitals:                                               138

 Number of orbital functions:                                                900
 Number of independent orbital functions:                                    900

 Extrapolation method: initial_guess


 SCF WAVEFUNCTION OPTIMIZATION

  ----------------------------------- OT ---------------------------------------
  Minimizer      : DIIS                : direct inversion
                                         in the iterative subspace
                                         using   7 DIIS vectors
                                         safer DIIS on
  Preconditioner : FULL_ALL            : diagonalization, state selective
  Precond_solver : DEFAULT
  stepsize       :    0.15000000                  energy_gap     :    0.08000000
  eps_taylor     :   0.10000E-15                  max_taylor     :             4
  ----------------------------------- OT ---------------------------------------

  Step     Update method      Time    Convergence         Total energy    Change
  ------------------------------------------------------------------------------
     1 OT DIIS     0.15E+00    0.8     0.00032967      -446.3495616528 -4.46E+02
     2 OT DIIS     0.15E+00    0.8     0.00013207      -446.3509766768 -1.42E-03
     3 OT DIIS     0.15E+00    0.8     0.00001402      -446.3512472807 -2.71E-04
     4 OT DIIS     0.15E+00    0.8     0.00000944      -446.3512478887 -6.08E-07
     5 OT DIIS     0.15E+00    0.8     0.00000352      -446.3512481712 -2.83E-07
     6 OT DIIS     0.15E+00    0.8     0.00000088      -446.3512482148 -4.37E-08

  *** SCF run converged in     6 steps ***


  Electronic density on regular grids:       -275.9999999817        0.0000000183
  Core density on regular grids:              275.9999999775       -0.0000000225
  Total charge density on r-space grids:       -0.0000000043
  Total charge density g-space grids:          -0.0000000043

  Overlap energy of the core charge distribution:               0.00002670737402
  Self energy of the core charge distribution:              -1084.93941312873972
  Core Hamiltonian energy:                                    329.03324086711120
  Hartree energy:                                             436.21126628551485
  Exchange-correlation energy:                               -126.45274725676418
  Dispersion energy:                                           -0.20362168933954

  Total energy:                                              -446.35124821484339

  outer SCF iter =    1 RMS gradient =   0.88E-06 energy =       -446.3512482148
  outer SCF loop converged in   1 iterations or    6 steps


 ENERGY| Total FORCE_EVAL ( QS ) energy (a.u.):             -446.351248218423507


 CELL| Volume [angstrom^3]:                                             1246.122
 CELL| Vector a [angstrom]:      15.394     0.000     0.000    |a| =      15.394
 CELL| Vector b [angstrom]:      -7.682    13.041     0.000    |b| =      15.136
 CELL| Vector c [angstrom]:      -0.069    -0.105     6.207    |c| =       6.208
 CELL| Angle (b,c), alpha [degree]:                                       90.510
 CELL| Angle (a,c), beta  [degree]:                                       90.641
 CELL| Angle (a,b), gamma [degree]:                                      120.501
 CELL| Numerically orthorhombic:                                              NO

 -------------------------------------------------------------------------------
 ----                             MULTIGRID INFO                            ----
 -------------------------------------------------------------------------------
 count for grid        1:         651320          cutoff [a.u.]          300.00
 count for grid        2:         509389          cutoff [a.u.]          100.00
 count for grid        3:         397312          cutoff [a.u.]           33.33
 count for grid        4:         154390          cutoff [a.u.]           11.11
 total gridlevel count  :        1712411

 PW_GRID| Information for grid number                                          9
 PW_GRID| Grid distributed over                                    56 processors
 PW_GRID| Real space group dimensions                                    56    1
 PW_GRID| the grid is blocked:                                                NO
 PW_GRID| Cutoff [a.u.]                                                    300.0
 PW_GRID| spherical cutoff:                                                   NO
 PW_GRID|   Bounds   1           -115     115                Points:         231
 PW_GRID|   Bounds   2           -112     111                Points:         224
 PW_GRID|   Bounds   3            -48      47                Points:          96
 PW_GRID| Volume element (a.u.^3)  0.1693E-02     Volume (a.u.^3)      8409.2452
 PW_GRID| Grid span                                                    FULLSPACE
 PW_GRID|   Distribution                         Average         Max         Min
 PW_GRID|   G-Vectors                            88704.0       88704       88704
 PW_GRID|   G-Rays                                 384.0         384         384
 PW_GRID|   Real Space Points                    88704.0      107520       86016

 PW_GRID| Information for grid number                                         10
 PW_GRID| Grid distributed over                                    56 processors
 PW_GRID| Real space group dimensions                                    56    1
 PW_GRID| the grid is blocked:                                                NO
 PW_GRID| Cutoff [a.u.]                                                    100.0
 PW_GRID| spherical cutoff:                                                   NO
 PW_GRID|   Bounds   1            -66      65                Points:         132
 PW_GRID|   Bounds   2            -66      65                Points:         132
 PW_GRID|   Bounds   3            -27      26                Points:          54
 PW_GRID| Volume element (a.u.^3)  0.8937E-02     Volume (a.u.^3)      8409.2452
 PW_GRID| Grid span                                                    FULLSPACE
 PW_GRID|   Distribution                         Average         Max         Min
 PW_GRID|   G-Vectors                            16801.7       18348       15444
 PW_GRID|   G-Rays                                 127.3         139         117
 PW_GRID|   Real Space Points                    16801.7       21384       14256

 PW_GRID| Information for grid number                                         11
 PW_GRID| Grid distributed over                                    56 processors
 PW_GRID| Real space group dimensions                                    56    1
 PW_GRID| the grid is blocked:                                                NO
 PW_GRID| Cutoff [a.u.]                                                     33.3
 PW_GRID| spherical cutoff:                                                   NO
 PW_GRID|   Bounds   1            -37      37                Points:          75
 PW_GRID|   Bounds   2            -37      37                Points:          75
 PW_GRID|   Bounds   3            -16      15                Points:          32
 PW_GRID| Volume element (a.u.^3)  0.4672E-01     Volume (a.u.^3)      8409.2452
 PW_GRID| Grid span                                                    FULLSPACE
 PW_GRID|   Distribution                         Average         Max         Min
 PW_GRID|   G-Vectors                             3214.3        3450        2850
 PW_GRID|   G-Rays                                  42.9          46          38
 PW_GRID|   Real Space Points                     3214.3        4800        2400

 PW_GRID| Information for grid number                                         12
 PW_GRID| Grid distributed over                                    56 processors
 PW_GRID| Real space group dimensions                                     7    8
 PW_GRID| the grid is blocked:                                                NO
 PW_GRID| Cutoff [a.u.]                                                     11.1
 PW_GRID| spherical cutoff:                                                   NO
 PW_GRID|   Bounds   1            -22      21                Points:          44
 PW_GRID|   Bounds   2            -22      21                Points:          44
 PW_GRID|   Bounds   3             -9       8                Points:          18
 PW_GRID| Volume element (a.u.^3)  0.2413         Volume (a.u.^3)      8409.2452
 PW_GRID| Grid span                                                    FULLSPACE
 PW_GRID|   Distribution                         Average         Max         Min
 PW_GRID|   G-Vectors                              622.3         792         440
 PW_GRID|   G-Rays                                  14.1          18          10
 PW_GRID|   Real Space Points                      622.3         756         540

 POISSON| Solver                                                        PERIODIC
 POISSON| Periodicity                                                        XYZ

 RS_GRID| Information for grid number                                          9
 RS_GRID|   Bounds   1           -115     115                Points:         231
 RS_GRID|   Bounds   2           -112     111                Points:         224
 RS_GRID|   Bounds   3            -48      47                Points:          96
 RS_GRID| Real space distribution over                                  8 groups
 RS_GRID| Real space distribution along direction                              1
 RS_GRID| Border size                                                         40
 RS_GRID| Real space distribution over                                  7 groups
 RS_GRID| Real space distribution along direction                              2
 RS_GRID| Border size                                                         40
 RS_GRID|   Distribution                         Average         Max         Min
 RS_GRID|   Planes                                 108.9         109         108
 RS_GRID|   Distribution                         Average         Max         Min
 RS_GRID|   Planes                                 112.0         112         112

 RS_GRID| Information for grid number                                         10
 RS_GRID|   Bounds   1            -66      65                Points:         132
 RS_GRID|   Bounds   2            -66      65                Points:         132
 RS_GRID|   Bounds   3            -27      26                Points:          54
 RS_GRID| Real space distribution over                                  8 groups
 RS_GRID| Real space distribution along direction                              1
 RS_GRID| Border size                                                         37
 RS_GRID| Real space distribution over                                  7 groups
[...]
 flops   217 x     1 x    32             10443776     100.0%      0.0%      0.0%
 flops    32 x     1 x    39             15882048     100.0%      0.0%      0.0%
 flops    43 x    32 x    23             18229248     100.0%      0.0%      0.0%
 flops     5 x     1 x     5             19814400     100.0%      0.0%      0.0%
 flops   225 x     1 x    32             20102400     100.0%      0.0%      0.0%
 flops    42 x    10 x    10             24049200     100.0%      0.0%      0.0%
 flops    43 x    32 x    31             24569856     100.0%      0.0%      0.0%
 flops    43 x    32 x    39             46365696     100.0%      0.0%      0.0%
 flops    32 x    10 x    10             54969600     100.0%      0.0%      0.0%
 flops     5 x    32 x    32             60948480     100.0%      0.0%      0.0%
 flops     5 x     5 x    10             88650000     100.0%      0.0%      0.0%
 flops   217 x    10 x    10            101556000     100.0%      0.0%      0.0%
 flops   233 x    10 x    10            109044000     100.0%      0.0%      0.0%
 flops     5 x     1 x    13            128793600     100.0%      0.0%      0.0%
 flops    13 x     1 x     5            128793600     100.0%      0.0%      0.0%
 flops   225 x    10 x    10            210600000     100.0%      0.0%      0.0%
 flops    42 x    10 x    23            299788440     100.0%      0.0%      0.0%
 flops    42 x    32 x    10            307829760     100.0%      0.0%      0.0%
 flops    42 x    10 x    32            307829760     100.0%      0.0%      0.0%
 flops    13 x    32 x    32            396165120     100.0%      0.0%      0.0%
 flops    42 x    10 x    31            406171920     100.0%      0.0%      0.0%
 flops     5 x    10 x     5            464544000     100.0%      0.0%      0.0%
 flops     5 x    13 x    10            553176000     100.0%      0.0%      0.0%
 flops    13 x     5 x    10            553176000     100.0%      0.0%      0.0%
 flops    32 x    10 x    23            685230720     100.0%      0.0%      0.0%
 flops    32 x    10 x    32            703610880     100.0%      0.0%      0.0%
 flops    32 x    32 x    10            703610880     100.0%      0.0%      0.0%
 flops    42 x    10 x    39            762947640     100.0%      0.0%      0.0%
 flops    13 x     1 x    13            834367872     100.0%      0.0%      0.0%
 flops   217 x    10 x    23            846473600     100.0%      0.0%      0.0%
 flops   233 x    10 x    23            908886400     100.0%      0.0%      0.0%
 flops    32 x    10 x    31            928392960     100.0%      0.0%      0.0%
 flops     5 x     5 x    32           1134720000     100.0%      0.0%      0.0%
 flops   217 x    10 x    31           1140899200     100.0%      0.0%      0.0%
 flops   233 x    10 x    31           1225020800     100.0%      0.0%      0.0%
 flops   217 x    10 x    32           1299916800     100.0%      0.0%      0.0%
 flops   217 x    32 x    10           1299916800     100.0%      0.0%      0.0%
 flops   233 x    10 x    32           1395763200     100.0%      0.0%      0.0%
 flops   233 x    32 x    10           1395763200     100.0%      0.0%      0.0%
 flops    32 x    10 x    39           1743880320     100.0%      0.0%      0.0%
 flops   225 x    10 x    23           1755360000     100.0%      0.0%      0.0%
 flops   217 x    10 x    39           2152987200     100.0%      0.0%      0.0%
 flops   233 x    10 x    39           2311732800     100.0%      0.0%      0.0%
 flops   225 x    10 x    31           2365920000     100.0%      0.0%      0.0%
 flops   225 x    32 x    10           2695680000     100.0%      0.0%      0.0%
 flops   225 x    10 x    32           2695680000     100.0%      0.0%      0.0%
 flops     5 x    10 x    13           3019536000     100.0%      0.0%      0.0%
 flops    13 x    10 x     5           3019536000     100.0%      0.0%      0.0%
 flops    13 x    13 x    10           3645343520     100.0%      0.0%      0.0%
 flops    42 x    32 x    23           3837292032     100.0%      0.0%      0.0%
 flops    42 x    32 x    32           3940220928     100.0%      0.0%      0.0%
 flops   225 x    10 x    39           4464720000     100.0%      0.0%      0.0%
 flops    42 x    32 x    31           5199000576     100.0%      0.0%      0.0%
 flops     5 x    32 x     5           5946163200     100.0%      0.0%      0.0%
 flops     5 x    13 x    32           7080652800     100.0%      0.0%      0.0%
 flops    13 x     5 x    32           7080652800     100.0%      0.0%      0.0%
 flops    32 x    32 x    23           8811651072     100.0%      0.0%      0.0%
 flops    32 x    32 x    32           9006219264     100.0%      0.0%      0.0%
 flops    42 x    32 x    39           9765729792     100.0%      0.0%      0.0%
 flops   217 x    32 x    23          10834862080     100.0%      0.0%      0.0%
 flops   233 x    32 x    23          11633745920     100.0%      0.0%      0.0%
 flops    32 x    32 x    31          11938283520     100.0%      0.0%      0.0%
 flops   217 x    32 x    31          14603509760     100.0%      0.0%      0.0%
 flops   233 x    32 x    31          15680266240     100.0%      0.0%      0.0%
 flops   217 x    32 x    32          16638935040     100.0%      0.0%      0.0%
 flops   233 x    32 x    32          17865768960     100.0%      0.0%      0.0%
 flops    13 x    10 x    13          19570957120     100.0%      0.0%      0.0%
 flops    32 x    32 x    39          22425182208     100.0%      0.0%      0.0%
 flops   225 x    32 x    23          22468608000     100.0%      0.0%      0.0%
 flops   217 x    32 x    39          27558236160     100.0%      0.0%      0.0%
 flops   233 x    32 x    39          29590179840     100.0%      0.0%      0.0%
 flops   225 x    32 x    31          30283776000     100.0%      0.0%      0.0%
 flops   225 x    32 x    32          34504704000     100.0%      0.0%      0.0%
 flops     5 x    32 x    13          38650060800     100.0%      0.0%      0.0%
 flops    13 x    32 x     5          38650060800     100.0%      0.0%      0.0%
 flops    13 x    13 x    32          46660397056     100.0%      0.0%      0.0%
 flops   225 x    32 x    39          57148416000     100.0%      0.0%      0.0%
 flops    13 x    32 x    13         250508251136     100.0%      0.0%      0.0%
 flops inhomo. stacks                     1836068     100.0%      0.0%      0.0%
 flops total                       827.458151E+09     100.0%      0.0%      0.0%
 flops max/rank                     46.560753E+09     100.0%      0.0%      0.0%
 matmuls inhomo. stacks                      5906     100.0%      0.0%      0.0%
 matmuls total                           74488934     100.0%      0.0%      0.0%
 number of processed stacks               6040434     100.0%      0.0%      0.0%
 average stack size                                    12.3       0.0       0.0
 marketing flops                   897.414201E+09
 -------------------------------------------------------------------------------
 # multiplications                          15299
 max memory usage/rank             258.289664E+06
 # max total images/rank                        7
 # max 3D layers                                1
 # MPI messages exchanged               100239048
 MPI messages size (bytes):
  total size                       435.295355E+09
  min size                           0.000000E+00
  max size                          75.192000E+03
  average size                       4.342573E+03
 MPI breakdown and total messages size (bytes):
             size <=      128            79108393                   895960
       128 < size <=     8192            10456407              58050751824
      8192 < size <=    32768             5120856              56518221760
     32768 < size <=   131072             5553392             320697290368
    131072 < size <=  4194304                   0                        0
   4194304 < size <= 16777216                   0                        0
  16777216 < size                               0                        0
 -------------------------------------------------------------------------------

 *** WARNING in dbcsr/mm/dbcsr_mm.F:267 :: Using a non-square number of ***
 *** MPI ranks might lead to poor performance.                          ***
 *** Used ranks: 56                                                     ***
 *** Suggested: 49 121                                                  ***

 -------------------------------------------------------------------------------
 
 MEMORY| Estimated peak process memory [MiB]                                 247

 -------------------------------------------------------------------------------
 ----                             MULTIGRID INFO                            ----
 -------------------------------------------------------------------------------
 count for grid        1:         660280          cutoff [a.u.]          300.00
 count for grid        2:         523818          cutoff [a.u.]          100.00
 count for grid        3:         423916          cutoff [a.u.]           33.33
 count for grid        4:         181132          cutoff [a.u.]           11.11
 total gridlevel count  :        1789146

 -------------------------------------------------------------------------------
 -                                                                             -
 -                         MESSAGE PASSING PERFORMANCE                         -
 -                                                                             -
 -------------------------------------------------------------------------------

 ROUTINE             CALLS      AVE VOLUME [Bytes]
 MP_Group             1552
 MP_Bcast             4538                 165768.
 MP_Allreduce        51137                    542.
 MP_Sync               544
 MP_Alltoall         74614                 398336.
 MP_SendRecv         13420                   1419.
 MP_ISendRecv       143605                  50398.
 MP_Wait           2141829
 MP_comm_split         296
 MP_ISend          3718016                   6574.
 MP_IRecv          3714838                   6496.
 MP_Recv               806                  72000.
 MP_Memory         2510608
 -------------------------------------------------------------------------------


 -------------------------------------------------------------------------------
 -                                                                             -
 -                           R E F E R E N C E S                               -
 -                                                                             -
 -------------------------------------------------------------------------------
 
 CP2K version 5.1, the CP2K developers group (2017).
 CP2K is freely available from https://www.cp2k.org/ .

 Schuett, Ole; Messmer, Peter; Hutter, Juerg; VandeVondele, Joost. 
 Electronic Structure Calculations on Graphics Processing Units, John Wiley & Sons, Ltd, 173-190 (2016). 
 GPU-Accelerated Sparse Matrix-Matrix Multiplication for Linear Scaling Density Functional Theory.
 http://dx.doi.org/10.1002/9781118670712.ch8


 Borstnik, U; VandeVondele, J; Weber, V; Hutter, J. 
 PARALLEL COMPUTING, 40 (5-6), 47-58 (2014). 
 Sparse matrix multiplication: The distributed block-compressed sparse
 row library.
 http://dx.doi.org/10.1016/j.parco.2014.03.012


 Hutter, J; Iannuzzi, M; Schiffmann, F; VandeVondele, J. 
 WILEY INTERDISCIPLINARY REVIEWS-COMPUTATIONAL MOLECULAR SCIENCE, 4 (1), 15-25 (2014). 
 CP2K: atomistic simulations of condensed matter systems.
 http://dx.doi.org/10.1002/wcms.1159


 Grimme, S; Ehrlich, S; Goerigk, L. 
 JOURNAL OF COMPUTATIONAL CHEMISTRY, 32, 1456 (2011). 
 Effect of the damping function in dispersion corrected density functional theory.
 http://dx.doi.org/10.1002/jcc.21759


 Grimme, S; Antony, J; Ehrlich, S; Krieg, H. 
 JOURNAL OF CHEMICAL PHYSICS, 132 (15), 154104 (2010). 
 A consistent and accurate ab initio parametrization of density
 functional dispersion correction (DFT-D) for the 94 elements H-Pu.
 http://dx.doi.org/10.1063/1.3382344


 VandeVondele, J; Hutter, J. 
 JOURNAL OF CHEMICAL PHYSICS, 127 (11), 114105 (2007). 
 Gaussian basis sets for accurate calculations on molecular systems in
 gas and condensed phases.
 http://dx.doi.org/10.1063/1.2770708


 Krack, M. 
 THEORETICAL CHEMISTRY ACCOUNTS, 114 (1-3), 145-152 (2005). 
 Pseudopotentials for H to Kr optimized for gradient-corrected
 exchange-correlation functionals.
 http://dx.doi.org/10.1007/s00214-005-0655-y


 VandeVondele, J; Krack, M; Mohamed, F; Parrinello, M; Chassaing, T;
 Hutter, J. COMPUTER PHYSICS COMMUNICATIONS, 167 (2), 103-128 (2005). 
 QUICKSTEP: Fast and accurate density functional calculations using a
 mixed Gaussian and plane waves approach.
 http://dx.doi.org/10.1016/j.cpc.2004.12.014


 Frigo, M; Johnson, SG. 
 PROCEEDINGS OF THE IEEE, 93 (2), 216-231 (2005). 
 The design and implementation of FFTW3.
 http://dx.doi.org/10.1109/JPROC.2004.840301


 Kolafa, J. 
 JOURNAL OF COMPUTATIONAL CHEMISTRY, 25 (3), 335-342 (2004). 
 Time-reversible always stable predictor-corrector method for molecular dynamics of polarizable molecules.
 http://dx.doi.org/10.1002/jcc.10385


 VandeVondele, J; Hutter, J. 
 JOURNAL OF CHEMICAL PHYSICS, 118 (10), 4365-4369 (2003). 
 An efficient orbital transformation method for electronic structure
 calculations.
 http://dx.doi.org/10.1063/1.1543154


 Hartwigsen, C; Goedecker, S; Hutter, J. 
 PHYSICAL REVIEW B, 58 (7), 3641-3662 (1998). 
 Relativistic separable dual-space Gaussian pseudopotentials from H to Rn.
 http://dx.doi.org/10.1103/PhysRevB.58.3641


 Lippert, G; Hutter, J; Parrinello, M. 
 MOLECULAR PHYSICS, 92 (3), 477-487 (1997). 
 A hybrid Gaussian and plane wave density functional scheme.
 http://dx.doi.org/10.1080/002689797170220


 Perdew, JP; Burke, K; Ernzerhof, M. 
 PHYSICAL REVIEW LETTERS, 77 (18), 3865-3868 (1996). 
 Generalized gradient approximation made simple.
 http://dx.doi.org/10.1103/PhysRevLett.77.3865


 Goedecker, S; Teter, M; Hutter, J. 
 PHYSICAL REVIEW B, 54 (3), 1703-1710 (1996). 
 Separable dual-space Gaussian pseudopotentials.
 http://dx.doi.org/10.1103/PhysRevB.54.1703


 BYRD, RH; LU, PH; NOCEDAL, J; ZHU, CY. 
 SIAM JOURNAL ON SCIENTIFIC COMPUTING, 16 (5), 1190-1208 (1995). 
 A LIMITED MEMORY ALGORITHM FOR BOUND CONSTRAINED OPTIMIZATION.
 http://dx.doi.org/10.1137/0916069


 -------------------------------------------------------------------------------
 -                                                                             -
 -                                T I M I N G                                  -
 -                                                                             -
 -------------------------------------------------------------------------------
 SUBROUTINE                       CALLS  ASD         SELF TIME        TOTAL TIME
                                MAXIMUM       AVERAGE  MAXIMUM  AVERAGE  MAXIMUM
 CP2K                                 1  1.0    0.066    0.087  460.083  460.088
 cp_cell_opt                          1  2.0    0.006    0.012  459.382  459.387
 geoopt_lbfgs                         1  3.0    0.001    0.004  459.376  459.378
 cp_eval_at                          62  5.0    0.011    0.020  459.116  459.117
 cp_opt_gopt_step                    60  4.0    0.007    0.015  441.050  441.050
 qs_forces                           61  6.0    0.013    0.024  440.765  440.768
 qs_energies                         62  7.0    0.018    0.029  409.014  409.031
 scf_env_do_scf                      62  8.0    0.004    0.014  369.151  369.153
 scf_env_do_scf_inner_loop          468  9.0    0.016    0.030  330.823  330.895
 rebuild_ks_matrix                  529 10.6    0.003    0.006  245.343  245.638
 qs_ks_build_kohn_sham_matrix       529 11.6    0.073    0.092  245.339  245.636
 qs_ks_update_qs_env                530 10.0    0.005    0.007  204.822  205.084
 qs_rho_update_rho                  530 10.1    0.005    0.006  141.994  142.157
 calculate_rho_elec                 530 11.1   88.623   90.162  141.989  142.153
 sum_up_and_integrate               529 12.6    0.428    0.444  137.085  137.181
 integrate_v_rspace                 529 13.6   89.541   90.750  136.656  136.758
 pw_transfer                      10118 14.4    0.590    0.679  109.011  109.441
 fft_wrap_pw1pw2                   9060 15.4    0.075    0.083  107.733  108.166
 fft_wrap_pw1pw2_300               5883 16.5    5.407    5.627  101.685  102.046
 fft3d_ps                          9060 17.4   50.531   51.084   94.134   94.760
 qs_vxc_create                      529 12.6    0.014    0.020   89.886   90.032
 xc_vxc_pw_create                   529 13.6    3.420    3.539   89.872   90.019
 rs_pw_transfer                    4359 14.3    0.043    0.051   60.968   62.439
 density_rs2pw                      530 12.1    0.025    0.028   48.042   49.449
 xc_rho_set_and_dset_create         529 14.6    0.471    0.482   46.625   47.332
 potential_pw2rs                    529 14.6    0.042    0.045   43.121   43.235
 dbcsr_multiply_generic           15299 13.6    0.677    0.704   42.286   43.117
 qs_ks_update_qs_env_forces          61  7.0    0.000    0.000   40.601   40.636
 mp_alltoall_z22v                  9060 19.4   37.638   38.848   37.638   38.848
 init_scf_loop                       62  9.0    0.002    0.011   38.149   38.160
 multiply_cannon                  15299 14.6    3.916    4.091   25.511   27.681
 qs_scf_new_mos                     468 10.0    0.003    0.005   27.077   27.403
 qs_scf_loop_do_ot                  468 11.0    0.005    0.010   27.074   27.400
 ot_scf_mini                        468 12.0    0.021    0.026   25.403   25.632
 rs_pw_transfer_PW2RS_300           590 16.1   13.826   14.429   22.315   23.877
 ot_mini                            807 11.3    0.007    0.010   23.391   23.655
 x_to_yz                           4233 18.8    3.576    3.935   22.522   23.076
 yz_to_x                           3768 18.1    1.908    2.052   20.565   21.172
 rs_pw_transfer_RS2PW_300           592 13.9   12.475   13.313   19.489   21.123
 init_scf_run                        62  8.0    0.003    0.011   19.996   20.002
 scf_env_initial_rho_setup           62  9.0    0.002    0.007   19.992   19.997
 wfi_extrapolate                     62 10.0    0.007    0.013   19.453   19.458
 qs_ot_get_derivative               638 12.9    0.005    0.007   18.831   19.064
 mp_waitany                       30094 16.1   14.323   18.096   14.323   18.096
 mp_waitall_1                   2111735 16.9   14.212   17.772   14.212   17.772
 xc_functional_eval                 529 15.6    0.006    0.010   15.666   16.366
 pbe_lda_eval                       529 16.6   15.660   16.361   15.660   16.361
 scf_post_calculation_gpw            62  8.0    0.005    0.011   12.347   12.354
 make_lumo                            1  7.0    0.001    0.002   12.299   12.300
 ot_eigensolver                       1  8.0    0.006    0.008   12.289   12.290
 qs_ot_get_derivative_taylor        588 14.2    0.015    0.019   11.931   12.164
 make_m2s                         30598 14.6    0.814    0.836   11.400   11.806
 prepare_preconditioner              62 10.0    0.000    0.000   10.401   10.442
 -------------------------------------------------------------------------------

 The number of warnings for this run is : 1
 
 -------------------------------------------------------------------------------
  **** **** ******  **  PROGRAM ENDED AT                 2019-02-15 22:55:01.780
 ***** ** ***  *** **   PROGRAM RAN ON                                      f275
 **    ****   ******    PROGRAM RAN BY                                    ongari
 ***** **    ** ** **   PROGRAM PROCESS ID                                 13688
  **** **  *******  **  PROGRAM STOPPED IN /scratch/ongari/aiida_run/e8/3c/92a8-
                                           94b5-4be2-8c8c-a1373550c36a
