 DBCSR| Multiplication driver                                               BLAS
 DBCSR| Multrec recursion limit                                              512
 DBCSR| Multiplication stack size                                           1000
 DBCSR| Maximum elements for images                                    UNLIMITED
 DBCSR| Multiplicative factor virtual images                                   1
 DBCSR| Multiplication size stacks                                             3
 DBCSR| Number of 3D layers                                               SINGLE
 DBCSR| Use MPI memory allocation                                              T
 DBCSR| Use RMA algorithm                                                      F
 DBCSR| Use Communication thread                                               T
 DBCSR| Communication thread load                                             87


  **** **** ******  **  PROGRAM STARTED AT               2019-02-15 22:49:02.183
 ***** ** ***  *** **   PROGRAM STARTED ON                                  g121
 **    ****   ******    PROGRAM STARTED BY                                ongari
 ***** **    ** ** **   PROGRAM PROCESS ID                                  3053
  **** **  *******  **  PROGRAM STARTED IN /scratch/ongari/aiida_run/f6/0b/00f9-
                                           2d8c-402a-9a5c-10aab21a7b4c

 CP2K| version string:                                          CP2K version 5.1
 CP2K| source code revision number:                                    svn:18091
 CP2K| cp2kflags: libint fftw3 pexsi parallel mpi3 scalapack libderiv_max_am1=5 
 CP2K|            libint_max_am=6
 CP2K| is freely available from                            https://www.cp2k.org/
 CP2K| Program compiled at                          Thu Jul 5 11:15:01 CEST 2018
 CP2K| Program compiled on                                                  f016
 CP2K| Program compiled for                  linux-rhel7-x86_E5v4_Mellanox-intel
 CP2K| Data directory path            /home/ongari/aiida-database/data/cp2k/data
 CP2K| Input file name                                                 aiida.inp
 
 GLOBAL| Force Environment number                                              1
 GLOBAL| Basis set file name                                        BASIS_MOLOPT
 GLOBAL| Potential file name                                      GTH_POTENTIALS
 GLOBAL| MM Potential file name                                     MM_POTENTIAL
 GLOBAL| Coordinate file name                                   aiida.coords.xyz
 GLOBAL| Method name                                                        CP2K
 GLOBAL| Project name                                                      aiida
 GLOBAL| Preferred FFT library                                             FFTW3
 GLOBAL| Preferred diagonalization lib.                                       SL
 GLOBAL| Run type                                                       CELL_OPT
 GLOBAL| All-to-all communication in single precision                          F
 GLOBAL| FFTs using library dependent lengths                                  T
 GLOBAL| Global print level                                               MEDIUM
 GLOBAL| Total number of message passing processes                            56
 GLOBAL| Number of threads for this process                                    1
 GLOBAL| This output is from process                                           0
 GLOBAL| CPU model name :  Intel(R) Xeon(R) Gold 6132 CPU @ 2.60GHz

 MEMORY| system memory details [Kb]
 MEMORY|                        rank 0           min           max       average
 MEMORY| MemTotal            197738988     197738988     197738988     197738988
 MEMORY| MemFree             180322024     180322024     180956128     180638979
 MEMORY| Buffers                  6184          1172          6184          3678
 MEMORY| Cached                 570252        448960        570252        509606
 MEMORY| Slab                   642816        319156        642816        480986
 MEMORY| SReclaimable           278296        109832        278296        194064
 MEMORY| MemLikelyFree       181176756     181176756     181516092     181346327


 *** Fundamental physical constants (SI units) ***

 *** Literature: B. J. Mohr and B. N. Taylor,
 ***             CODATA recommended values of the fundamental physical
 ***             constants: 2006, Web Version 5.1
 ***             http://physics.nist.gov/constants

 Speed of light in vacuum [m/s]                             2.99792458000000E+08
 Magnetic constant or permeability of vacuum [N/A**2]       1.25663706143592E-06
 Electric constant or permittivity of vacuum [F/m]          8.85418781762039E-12
 Planck constant (h) [J*s]                                  6.62606896000000E-34
 Planck constant (h-bar) [J*s]                              1.05457162825177E-34
 Elementary charge [C]                                      1.60217648700000E-19
 Electron mass [kg]                                         9.10938215000000E-31
 Electron g factor [ ]                                     -2.00231930436220E+00
 Proton mass [kg]                                           1.67262163700000E-27
 Fine-structure constant                                    7.29735253760000E-03
 Rydberg constant [1/m]                                     1.09737315685270E+07
 Avogadro constant [1/mol]                                  6.02214179000000E+23
 Boltzmann constant [J/K]                                   1.38065040000000E-23
 Atomic mass unit [kg]                                      1.66053878200000E-27
 Bohr radius [m]                                            5.29177208590000E-11

 *** Conversion factors ***

 [u] -> [a.u.]                                              1.82288848426455E+03
 [Angstrom] -> [Bohr] = [a.u.]                              1.88972613288564E+00
 [a.u.] = [Bohr] -> [Angstrom]                              5.29177208590000E-01
 [a.u.] -> [s]                                              2.41888432650478E-17
 [a.u.] -> [fs]                                             2.41888432650478E-02
 [a.u.] -> [J]                                              4.35974393937059E-18
 [a.u.] -> [N]                                              8.23872205491840E-08
 [a.u.] -> [K]                                              3.15774647902944E+05
 [a.u.] -> [kJ/mol]                                         2.62549961709828E+03
 [a.u.] -> [kcal/mol]                                       6.27509468713739E+02
 [a.u.] -> [Pa]                                             2.94210107994716E+13
 [a.u.] -> [bar]                                            2.94210107994716E+08
 [a.u.] -> [atm]                                            2.90362800883016E+08
 [a.u.] -> [eV]                                             2.72113838565563E+01
 [a.u.] -> [Hz]                                             6.57968392072181E+15
 [a.u.] -> [1/cm] (wave numbers)                            2.19474631370540E+05
 [a.u./Bohr**2] -> [1/cm]                                   5.14048714338585E+03
 

 CELL_TOP| Volume [angstrom^3]:                                         6382.507
 CELL_TOP| Vector a [angstrom    30.147    -0.354    -0.077    |a| =      30.149
 CELL_TOP| Vector b [angstrom   -15.379    26.427    -0.077    |b| =      30.576
 CELL_TOP| Vector c [angstrom    -0.021    -0.036     8.067    |c| =       8.067
 CELL_TOP| Angle (b,c), alpha [degree]:                                   90.290
 CELL_TOP| Angle (a,c), beta  [degree]:                                   90.291
 CELL_TOP| Angle (a,b), gamma [degree]:                                  120.870
 CELL_TOP| Numerically orthorhombic:                                          NO
 
 GENERATE|  Preliminary Number of Bonds generated:                             0
 GENERATE|  Achieved consistency in connectivity generation.

 CELL| Volume [angstrom^3]:                                             6382.507
 CELL| Vector a [angstrom]:      30.147    -0.354    -0.077    |a| =      30.149
 CELL| Vector b [angstrom]:     -15.379    26.427    -0.077    |b| =      30.576
 CELL| Vector c [angstrom]:      -0.021    -0.036     8.067    |c| =       8.067
 CELL| Angle (b,c), alpha [degree]:                                       90.290
 CELL| Angle (a,c), beta  [degree]:                                       90.291
 CELL| Angle (a,b), gamma [degree]:                                      120.870
 CELL| Numerically orthorhombic:                                              NO

 CELL_REF| Volume [angstrom^3]:                                         6382.507
 CELL_REF| Vector a [angstrom    30.147    -0.354    -0.077    |a| =      30.149
 CELL_REF| Vector b [angstrom   -15.379    26.427    -0.077    |b| =      30.576
 CELL_REF| Vector c [angstrom    -0.021    -0.036     8.067    |c| =       8.067
 CELL_REF| Angle (b,c), alpha [degree]:                                   90.290
 CELL_REF| Angle (a,c), beta  [degree]:                                   90.291
 CELL_REF| Angle (a,b), gamma [degree]:                                  120.870
 CELL_REF| Numerically orthorhombic:                                          NO

 *******************************************************************************
 *******************************************************************************
 **                                                                           **
 **     #####                         ##              ##                      **
 **    ##   ##            ##          ##              ##                      **
 **   ##     ##                       ##            ######                    **
 **   ##     ##  ##   ##  ##   #####  ##  ##   ####   ##    #####    #####    **
 **   ##     ##  ##   ##  ##  ##      ## ##   ##      ##   ##   ##  ##   ##   **
 **   ##  ## ##  ##   ##  ##  ##      ####     ###    ##   ######   ######    **
 **    ##  ###   ##   ##  ##  ##      ## ##      ##   ##   ##       ##        **
 **     #######   #####   ##   #####  ##  ##  ####    ##    #####   ##        **
 **           ##                                                    ##        **
 **                                                                           **
 **                                                ... make the atoms dance   **
 **                                                                           **
 **            Copyright (C) by CP2K developers group (2000 - 2017)           **
 **                                                                           **
 *******************************************************************************

 DFT| Spin restricted Kohn-Sham (RKS) calculation                            RKS
 DFT| Multiplicity                                                             1
 DFT| Number of spin states                                                    1
 DFT| Charge                                                                   0
 DFT| Self-interaction correction (SIC)                                       NO
 DFT| Cutoffs: density                                              1.000000E-10
 DFT|          gradient                                             1.000000E-10
 DFT|          tau                                                  1.000000E-10
 DFT|          cutoff_smoothing_range                               0.000000E+00
 DFT| XC density smoothing                                                  NONE
 DFT| XC derivatives                                                          PW
 FUNCTIONAL| ROUTINE=NEW
 FUNCTIONAL| PBE:
 FUNCTIONAL| J.P.Perdew, K.Burke, M.Ernzerhof, Phys. Rev. Letter, vol. 77, n 18,
 FUNCTIONAL|  pp. 3865-3868, (1996){spin unpolarized}                           
 vdW POTENTIAL|                                                   Pair Potential
 vdW POTENTIAL|          DFT-D3 (Version 3.1)
 vdW POTENTIAL|          Potential Form: S. Grimme et al, JCP 132: 154104 (2010)
 vdW POTENTIAL|          BJ Damping: S. Grimme et al, JCC 32: 1456 (2011)
 vdW POTENTIAL|          Cutoff Radius [Bohr]:                             20.00
 vdW POTENTIAL|          s6 Scaling Factor:                               1.0000
 vdW POTENTIAL|          a1 Damping Factor:                               0.4289
 vdW POTENTIAL|          s8 Scaling Factor:                               0.7875
 vdW POTENTIAL|          a2 Damping Factor:                               4.4407
 vdW POTENTIAL|          Cutoff for CN calculation:                   0.1000E-05

 QS| Method:                                                                 GPW
 QS| Density plane wave grid type                        NON-SPHERICAL FULLSPACE
 QS| Number of grid levels:                                                    4
 QS| Density cutoff [a.u.]:                                                300.0
 QS| Multi grid cutoff [a.u.]: 1) grid level                               300.0
 QS|                           2) grid level                               100.0
 QS|                           3) grid level                                33.3
 QS|                           4) grid level                                11.1
 QS| Grid level progression factor:                                          3.0
 QS| Relative density cutoff [a.u.]:                                        25.0
 QS| Consistent realspace mapping and integration 
 QS| Interaction thresholds: eps_pgf_orb:                                1.0E-05
 QS|                         eps_filter_matrix:                          0.0E+00
 QS|                         eps_core_charge:                            1.0E-12
 QS|                         eps_rho_gspace:                             1.0E-10
 QS|                         eps_rho_rspace:                             1.0E-10
 QS|                         eps_gvg_rspace:                             1.0E-05
 QS|                         eps_ppl:                                    1.0E-02
 QS|                         eps_ppnl:                                   1.0E-07


 ATOMIC KIND INFORMATION

  1. Atomic kind: B                                     Number of atoms:      12

     Orbital Basis Set                                     DZVP-MOLOPT-SR-GTH-q3

       Number of orbital shell sets:                                           1
       Number of orbital shells:                                               5
       Number of primitive Cartesian functions:                                4
       Number of Cartesian basis functions:                                   14
       Number of spherical basis functions:                                   13
       Norm type:                                                              2

       Normalised Cartesian orbitals:

                        Set   Shell   Orbital            Exponent    Coefficient

                          1       1    2s                3.053444       0.252402
                                                         0.915484       0.050494
                                                         0.329920      -0.219689
                                                         0.101655      -0.057697

                          1       2    3s                3.053444      -0.889751
                                                         0.915484      -0.125118
                                                         0.329920       0.537314
                                                         0.101655      -0.211019

                          1       3    3px               3.053444      -0.570049
                                                         0.915484      -0.388730
                                                         0.329920      -0.182602
                                                         0.101655      -0.024010
                          1       3    3py               3.053444      -0.570049
                                                         0.915484      -0.388730
                                                         0.329920      -0.182602
                                                         0.101655      -0.024010
                          1       3    3pz               3.053444      -0.570049
                                                         0.915484      -0.388730
                                                         0.329920      -0.182602
                                                         0.101655      -0.024010

                          1       4    4px               3.053444      -0.595374
                                                         0.915484      -0.502823
                                                         0.329920      -0.128778
                                                         0.101655       0.089873
                          1       4    4py               3.053444      -0.595374
                                                         0.915484      -0.502823
                                                         0.329920      -0.128778
                                                         0.101655       0.089873
                          1       4    4pz               3.053444      -0.595374
                                                         0.915484      -0.502823
                                                         0.329920      -0.128778
                                                         0.101655       0.089873

                          1       5    4dx2              3.053444      -0.371712
                                                         0.915484      -0.428539
                                                         0.329920      -0.123001
                                                         0.101655      -0.011638
                          1       5    4dxy              3.053444      -0.643825
                                                         0.915484      -0.742250
                                                         0.329920      -0.213044
                                                         0.101655      -0.020158
                          1       5    4dxz              3.053444      -0.643825
                                                         0.915484      -0.742250
                                                         0.329920      -0.213044
                                                         0.101655      -0.020158
                          1       5    4dy2              3.053444      -0.371712
                                                         0.915484      -0.428539
                                                         0.329920      -0.123001
                                                         0.101655      -0.011638
                          1       5    4dyz              3.053444      -0.643825
                                                         0.915484      -0.742250
                                                         0.329920      -0.213044
                                                         0.101655      -0.020158
                          1       5    4dz2              3.053444      -0.371712
                                                         0.915484      -0.428539
                                                         0.329920      -0.123001
                                                         0.101655      -0.011638

     GTH Potential information for                                    GTH-PBE-q3

       Description:                       Goedecker-Teter-Hutter pseudopotential
                                           Goedecker et al., PRB 54, 1703 (1996)
                                          Hartwigsen et al., PRB 58, 3641 (1998)
                                                      Krack, TCA 114, 145 (2005)

       Gaussian exponent of the core charge distribution:               2.848129
       Electronic configuration (s p d ...):                               2   1

       Parameters of the local part of the GTH pseudopotential:

                          rloc        C1          C2          C3          C4
                        0.418991   -5.859462    0.903756

       Parameters of the non-local part of the GTH pseudopotential:

                   l      r(l)      h(i,j,l)

                   0    0.371320    6.297280
                   1    0.364563

  2. Atomic kind: O                                     Number of atoms:      24

     Orbital Basis Set                                     DZVP-MOLOPT-SR-GTH-q6

       Number of orbital shell sets:                                           1
       Number of orbital shells:                                               5
       Number of primitive Cartesian functions:                                5
       Number of Cartesian basis functions:                                   14
       Number of spherical basis functions:                                   13
       Norm type:                                                              2

       Normalised Cartesian orbitals:

                        Set   Shell   Orbital            Exponent    Coefficient

                          1       1    2s               10.389228       0.396646
                                                         3.849621       0.208811
                                                         1.388401      -0.301641
                                                         0.496955      -0.274061
                                                         0.162492      -0.033677

                          1       2    3s               10.389228       0.303673
                                                         3.849621       0.240943
                                                         1.388401      -0.313066
                                                         0.496955      -0.043055
                                                         0.162492       0.213991

                          1       3    3px              10.389228      -1.530415
                                                         3.849621      -1.371928
                                                         1.388401      -0.761951
                                                         0.496955      -0.253695
                                                         0.162492      -0.035541
                          1       3    3py              10.389228      -1.530415
                                                         3.849621      -1.371928
                                                         1.388401      -0.761951
                                                         0.496955      -0.253695
                                                         0.162492      -0.035541
                          1       3    3pz              10.389228      -1.530415
                                                         3.849621      -1.371928
                                                         1.388401      -0.761951
                                                         0.496955      -0.253695
                                                         0.162492      -0.035541

                          1       4    4px              10.389228      -0.565392
                                                         3.849621      -0.038231
                                                         1.388401      -0.382373
                                                         0.496955       0.179070
                                                         0.162492       0.122714
                          1       4    4py              10.389228      -0.565392
                                                         3.849621      -0.038231
                                                         1.388401      -0.382373
                                                         0.496955       0.179070
                                                         0.162492       0.122714
                          1       4    4pz              10.389228      -0.565392
                                                         3.849621      -0.038231
                                                         1.388401      -0.382373
                                                         0.496955       0.179070
                                                         0.162492       0.122714

                          1       5    4dx2             10.389228       1.867377
                                                         3.849621       0.670994
                                                         1.388401       1.353441
                                                         0.496955       0.273538
                                                         0.162492       0.006620
                          1       5    4dxy             10.389228       3.234392
                                                         3.849621       1.162195
                                                         1.388401       2.344229
                                                         0.496955       0.473781
                                                         0.162492       0.011466
                          1       5    4dxz             10.389228       3.234392
                                                         3.849621       1.162195
                                                         1.388401       2.344229
                                                         0.496955       0.473781
                                                         0.162492       0.011466
                          1       5    4dy2             10.389228       1.867377
                                                         3.849621       0.670994
                                                         1.388401       1.353441
                                                         0.496955       0.273538
                                                         0.162492       0.006620
                          1       5    4dyz             10.389228       3.234392
                                                         3.849621       1.162195
                                                         1.388401       2.344229
                                                         0.496955       0.473781
                                                         0.162492       0.011466
                          1       5    4dz2             10.389228       1.867377
                                                         3.849621       0.670994
                                                         1.388401       1.353441
                                                         0.496955       0.273538
                                                         0.162492       0.006620

     GTH Potential information for                                    GTH-PBE-q6

       Description:                       Goedecker-Teter-Hutter pseudopotential
                                           Goedecker et al., PRB 54, 1703 (1996)
                                          Hartwigsen et al., PRB 58, 3641 (1998)
                                                      Krack, TCA 114, 145 (2005)

       Gaussian exponent of the core charge distribution:               8.360253
       Electronic configuration (s p d ...):                               2   4

       Parameters of the local part of the GTH pseudopotential:

                          rloc        C1          C2          C3          C4
                        0.244554  -16.667215    2.487311

       Parameters of the non-local part of the GTH pseudopotential:

                   l      r(l)      h(i,j,l)

                   0    0.220956   18.337458
                   1    0.211332

  3. Atomic kind: C                                     Number of atoms:     108

     Orbital Basis Set                                     DZVP-MOLOPT-SR-GTH-q4

       Number of orbital shell sets:                                           1
       Number of orbital shells:                                               5
       Number of primitive Cartesian functions:                                5
       Number of Cartesian basis functions:                                   14
       Number of spherical basis functions:                                   13
       Norm type:                                                              2

       Normalised Cartesian orbitals:

                        Set   Shell   Orbital            Exponent    Coefficient

                          1       1    2s                5.605331       0.322515
                                                         2.113016       0.213043
                                                         0.769911      -0.209686
                                                         0.348157      -0.219794
                                                         0.128212      -0.022789

                          1       2    3s                5.605331       0.552234
                                                         2.113016       0.082072
                                                         0.769911       0.007843
                                                         0.348157       0.136893
                                                         0.128212       0.074283

                          1       3    3px               5.605331      -0.703879
                                                         2.113016      -0.642521
                                                         0.769911      -0.374851
                                                         0.348157      -0.139743
                                                         0.128212      -0.027849
                          1       3    3py               5.605331      -0.703879
                                                         2.113016      -0.642521
                                                         0.769911      -0.374851
                                                         0.348157      -0.139743
                                                         0.128212      -0.027849
                          1       3    3pz               5.605331      -0.703879
                                                         2.113016      -0.642521
                                                         0.769911      -0.374851
                                                         0.348157      -0.139743
                                                         0.128212      -0.027849

                          1       4    4px               5.605331      -0.480376
                                                         2.113016      -0.552894
                                                         0.769911      -0.316145
                                                         0.348157       0.210505
                                                         0.128212       0.076095
                          1       4    4py               5.605331      -0.480376
                                                         2.113016      -0.552894
                                                         0.769911      -0.316145
                                                         0.348157       0.210505
                                                         0.128212       0.076095
                          1       4    4pz               5.605331      -0.480376
                                                         2.113016      -0.552894
                                                         0.769911      -0.316145
                                                         0.348157       0.210505
                                                         0.128212       0.076095

                          1       5    4dx2              5.605331       0.640026
                                                         2.113016       0.274300
                                                         0.769911       0.446711
                                                         0.348157       0.028674
                                                         0.128212       0.029790
                          1       5    4dxy              5.605331       1.108557
                                                         2.113016       0.475102
                                                         0.769911       0.773726
                                                         0.348157       0.049666
                                                         0.128212       0.051599
                          1       5    4dxz              5.605331       1.108557
                                                         2.113016       0.475102
                                                         0.769911       0.773726
                                                         0.348157       0.049666
                                                         0.128212       0.051599
                          1       5    4dy2              5.605331       0.640026
                                                         2.113016       0.274300
                                                         0.769911       0.446711
                                                         0.348157       0.028674
                                                         0.128212       0.029790
                          1       5    4dyz              5.605331       1.108557
                                                         2.113016       0.475102
                                                         0.769911       0.773726
                                                         0.348157       0.049666
                                                         0.128212       0.051599
                          1       5    4dz2              5.605331       0.640026
                                                         2.113016       0.274300
                                                         0.769911       0.446711
                                                         0.348157       0.028674
                                                         0.128212       0.029790

     GTH Potential information for                                    GTH-PBE-q4

       Description:                       Goedecker-Teter-Hutter pseudopotential
                                           Goedecker et al., PRB 54, 1703 (1996)
                                          Hartwigsen et al., PRB 58, 3641 (1998)
                                                      Krack, TCA 114, 145 (2005)

       Gaussian exponent of the core charge distribution:               4.364419
       Electronic configuration (s p d ...):                               2   2

       Parameters of the local part of the GTH pseudopotential:

                          rloc        C1          C2          C3          C4
                        0.338471   -8.803674    1.339211

       Parameters of the non-local part of the GTH pseudopotential:

                   l      r(l)      h(i,j,l)

                   0    0.302576    9.622487
                   1    0.291507

  4. Atomic kind: H                                     Number of atoms:      48

     Orbital Basis Set                                     DZVP-MOLOPT-SR-GTH-q1

       Number of orbital shell sets:                                           1
       Number of orbital shells:                                               3
       Number of primitive Cartesian functions:                                5
       Number of Cartesian basis functions:                                    5
       Number of spherical basis functions:                                    5
       Norm type:                                                              2

       Normalised Cartesian orbitals:

                        Set   Shell   Orbital            Exponent    Coefficient

                          1       1    2s               10.068468      -0.133023
                                                         2.680223      -0.177618
                                                         0.791502      -0.258419
                                                         0.239116      -0.107525
                                                         0.082193      -0.014019

                          1       2    3s               10.068468       0.344673
                                                         2.680223       1.819821
                                                         0.791502      -0.999069
                                                         0.239116       0.017430
                                                         0.082193       0.082660

                          1       3    3px              10.068468       0.155326
                                                         2.680223       0.367157
                                                         0.791502       0.311480
                                                         0.239116       0.080105
                                                         0.082193       0.033440
                          1       3    3py              10.068468       0.155326
                                                         2.680223       0.367157
                                                         0.791502       0.311480
                                                         0.239116       0.080105
                                                         0.082193       0.033440
                          1       3    3pz              10.068468       0.155326
                                                         2.680223       0.367157
                                                         0.791502       0.311480
                                                         0.239116       0.080105
                                                         0.082193       0.033440

     GTH Potential information for                                    GTH-PBE-q1

       Description:                       Goedecker-Teter-Hutter pseudopotential
                                           Goedecker et al., PRB 54, 1703 (1996)
                                          Hartwigsen et al., PRB 58, 3641 (1998)
                                                      Krack, TCA 114, 145 (2005)

       Gaussian exponent of the core charge distribution:              12.500000
       Electronic configuration (s p d ...):                                   1

       Parameters of the local part of the GTH pseudopotential:

                          rloc        C1          C2          C3          C4
                        0.200000   -4.178900    0.724463


 MOLECULE KIND INFORMATION


 All atoms are their own molecule, skipping detailed information


 TOTAL NUMBERS AND MAXIMUM NUMBERS

  Total number of            - Atomic kinds:                                   4
                             - Atoms:                                        192
                             - Shell sets:                                   192
                             - Shells:                                       864
                             - Primitive Cartesian functions:                948
                             - Cartesian basis functions:                   2256
                             - Spherical basis functions:                   2112

  Maximum angular momentum of- Orbital basis functions:                        2
                             - Local part of the GTH pseudopotential:          2
                             - Non-local part of the GTH pseudopotential:      0


 MODULE QUICKSTEP:  ATOMIC COORDINATES IN angstrom

  Atom  Kind  Element       X           Y           Z          Z(eff)       Mass

       1     1 B    5   -5.358825   14.645540    1.860461      3.00      10.8110
       2     1 B    5    4.699310   14.316593    1.916074      3.00      10.8110
       3     1 B    5   -0.535821   23.209868    1.850463      3.00      10.8110
       4     1 B    5   19.798234   11.263709    2.010616      3.00      10.8110
       5     1 B    5   10.058756   11.441111    1.913864      3.00      10.8110
       6     1 B    5   14.777340    2.704634    2.089005      3.00      10.8110
       7     2 O    8   15.900119    3.450986    1.824994      6.00      15.9994
       8     3 C    6   13.568941    0.471921    1.850108      4.00      12.0107
       9     3 C    6   15.546981    4.798217    1.822270      4.00      12.0107
      10     3 C    6   16.306684    5.922955    1.901751      4.00      12.0107
      11     3 C    6   15.631773    7.164754    1.936251      4.00      12.0107
      12     2 O    8   18.612445   11.812135    2.248738      6.00      15.9994
      13     3 C    6   22.323889   11.404166    2.111082      4.00      12.0107
      14     3 C    6   17.751689   10.746240    2.167704      4.00      12.0107
      15     3 C    6   16.389077   10.853281    2.316942      4.00      12.0107
      16     3 C    6   15.643240    9.651808    2.039940      4.00      12.0107
      17     2 O    8   10.136842   10.000910    1.982465      6.00      15.9994
      18     3 C    6    8.579658   13.586623    1.849387      4.00      12.0107
      19     3 C    6   11.477187    9.729111    2.121240      4.00      12.0107
      20     3 C    6   12.080354    8.536999    1.925451      4.00      12.0107
      21     3 C    6   13.476900    8.478921    2.000826      4.00      12.0107
      22     2 O    8   -1.603903   22.384603    2.115213      6.00      15.9994
      23     3 C    6    0.684970   25.500223    1.984120      4.00      12.0107
      24     3 C    6   -1.041858   21.124473    1.958463      4.00      12.0107
      25     3 C    6   -1.640334   19.852222    2.043177      4.00      12.0107
      26     3 C    6   -0.974823   18.609228    1.907649      4.00      12.0107
      27     2 O    8   -4.124977   13.980436    2.140158      6.00      15.9994
      28     3 C    6   -7.891842   14.495026    1.395473      4.00      12.0107
      29     3 C    6   -3.180085   15.016091    2.170139      4.00      12.0107
      30     3 C    6   -1.813469   14.950555    2.360526      4.00      12.0107
      31     3 C    6   -1.026341   16.140827    2.298289      4.00      12.0107
      32     2 O    8    4.677262   15.687889    1.866145      6.00      15.9994
      33     3 C    6    6.232611   12.134671    1.551889      4.00      12.0107
      34     3 C    6    3.282377   16.031933    1.932309      4.00      12.0107
      35     3 C    6    2.622199   17.292513    1.866123      4.00      12.0107
      36     3 C    6    1.164436   17.343066    1.945994      4.00      12.0107
      37     2 O    8   -5.105964   15.983560    1.618829      6.00      15.9994
      38     3 C    6   -6.677020   12.509309    2.148924      4.00      12.0107
      39     3 C    6   -3.805387   16.221876    1.836241      4.00      12.0107
      40     3 C    6   -3.173264   17.413714    1.708282      4.00      12.0107
      41     3 C    6   -1.774044   17.371640    2.016202      4.00      12.0107
      42     2 O    8    0.761665   22.479209    1.647883      6.00      15.9994
      43     3 C    6   -1.735321   25.487282    1.694673      4.00      12.0107
      44     3 C    6    0.352266   21.131475    1.736131      4.00      12.0107
      45     3 C    6    1.126642   19.940931    1.612676      4.00      12.0107
      46     3 C    6    0.410848   18.650570    1.780135      4.00      12.0107
      47     2 O    8    3.380114   13.810099    2.046129      6.00      15.9994
      48     3 C    6    7.354416   14.216878    2.012403      4.00      12.0107
      49     3 C    6    2.506406   14.896061    2.065653      4.00      12.0107
      50     3 C    6    1.142696   14.871458    2.288037      4.00      12.0107
      51     3 C    6    0.455726   16.105043    2.206060      4.00      12.0107
      52     2 O    8   19.797448    9.835022    1.982645      6.00      15.9994
      53     3 C    6   21.075064   13.422105    1.498870      4.00      12.0107
      54     3 C    6   18.456690    9.526359    1.989500      4.00      12.0107
      55     3 C    6   17.759939    8.377504    1.868810      4.00      12.0107
      56     3 C    6   16.394804    8.419504    1.912575      4.00      12.0107
      57     2 O    8   13.681349    3.590420    2.333209      6.00      15.9994
      58     3 C    6   16.013498    0.477561    2.146456      4.00      12.0107
      59     3 C    6   14.168658    4.840872    2.051517      4.00      12.0107
      60     3 C    6   13.468652    5.984915    2.077590      4.00      12.0107
      61     3 C    6   14.216217    7.198166    2.025589      4.00      12.0107
      62     2 O    8   11.323210   11.963841    2.316153      6.00      15.9994
      63     3 C    6    7.478530   11.503966    1.426640      4.00      12.0107
      64     3 C    6   12.176971   10.881682    2.374774      4.00      12.0107
      65     3 C    6   13.539728   10.894770    2.542410      4.00      12.0107
      66     3 C    6   14.224681    9.671839    2.213012      4.00      12.0107
      67     3 C    6   21.082158   12.060541    1.871667      4.00      12.0107
      68     3 C    6    8.773962   12.212023    1.519727      4.00      12.0107
      69     3 C    6   14.769191    1.175573    2.096625      4.00      12.0107
      70     3 C    6   -6.655902   13.908347    1.789361      4.00      12.0107
      71     3 C    6    6.099811   13.529365    1.805025      4.00      12.0107
      72     3 C    6   -0.516952   24.809776    1.788109      4.00      12.0107
      73     4 H    1   12.638909    1.049530    1.729240      1.00       1.0079
      74     4 H    1   17.382234    6.012780    1.666564      1.00       1.0079
      75     4 H    1   22.383363   10.438171    2.491377      1.00       1.0079
      76     4 H    1   15.899646   11.800543    2.319935      1.00       1.0079
      77     4 H    1    9.446148   14.232842    1.844289      1.00       1.0079
      78     4 H    1   11.581683    7.528869    1.734018      1.00       1.0079
      79     4 H    1    1.554873   24.936762    2.362721      1.00       1.0079
      80     4 H    1   -2.657286   19.821499    2.178521      1.00       1.0079
      81     4 H    1   -7.916356   15.560040    0.967645      1.00       1.0079
      82     4 H    1   -1.257537   14.013403    2.587581      1.00       1.0079
      83     4 H    1    5.384190   11.545946    1.395577      1.00       1.0079
      84     4 H    1    3.257300   18.164829    1.911181      1.00       1.0079
      85     4 H    1   -5.717858   12.051652    2.445716      1.00       1.0079
      86     4 H    1   -3.673085   18.345868    1.383189      1.00       1.0079
      87     4 H    1   -2.782948   25.001398    1.479010      1.00       1.0079
      88     4 H    1    2.224859   19.940602    1.541521      1.00       1.0079
      89     4 H    1    7.352674   15.296915    2.125268      1.00       1.0079
      90     4 H    1    0.484048   14.018852    2.447975      1.00       1.0079
      91     4 H    1   20.170063   13.944614    1.183838      1.00       1.0079
      92     4 H    1   18.302660    7.422598    1.752003      1.00       1.0079
      93     4 H    1   16.880960    1.068794    2.552565      1.00       1.0079
      94     4 H    1   12.389768    5.943771    2.189304      1.00       1.0079
      95     4 H    1    7.561524   10.450724    1.197703      1.00       1.0079
      96     4 H    1   14.048631   11.822892    2.652510      1.00       1.0079
      97     1 B    5   -5.169662   14.555166    6.033348      3.00      10.8110
      98     1 B    5    4.675248   14.345356    5.900946      3.00      10.8110
      99     1 B    5   -0.302021   23.052333    6.190165      3.00      10.8110
     100     1 B    5   19.776923   11.219077    5.847807      3.00      10.8110
     101     1 B    5    9.789097   11.336511    5.676589      3.00      10.8110
     102     1 B    5   15.104975    2.564527    6.244426      3.00      10.8110
     103     2 O    8   16.239861    3.433386    6.074679      6.00      15.9994
     104     3 C    6   13.888666    0.304658    6.388612      4.00      12.0107
     105     3 C    6   15.633439    4.721734    6.115000      4.00      12.0107
     106     3 C    6   16.300677    5.963284    6.065057      4.00      12.0107
     107     3 C    6   15.529115    7.166164    6.036675      4.00      12.0107
     108     2 O    8   18.554913   11.803944    6.158030      6.00      15.9994
     109     3 C    6   22.455230   11.315630    5.858229      4.00      12.0107
     110     3 C    6   17.639906   10.734870    6.249895      4.00      12.0107
     111     3 C    6   16.209594   10.868164    6.181814      4.00      12.0107
     112     3 C    6   15.470648    9.666059    6.033983      4.00      12.0107
     113     2 O    8    9.866097    9.898466    5.557888      6.00      15.9994
     114     3 C    6    8.436480   13.541060    5.427234      4.00      12.0107
     115     3 C    6   11.272989    9.598829    5.672753      4.00      12.0107
     116     3 C    6   11.915013    8.360490    5.734391      4.00      12.0107
     117     3 C    6   13.336359    8.236957    5.819190      4.00      12.0107
     118     2 O    8   -1.459484   22.198507    5.963101      6.00      15.9994
     119     3 C    6    0.840874   25.249158    6.196534      4.00      12.0107
     120     3 C    6   -0.887033   20.960144    5.896119      4.00      12.0107
     121     3 C    6   -1.575943   19.776203    5.832518      4.00      12.0107
     122     3 C    6   -0.865450   18.616427    5.908346      4.00      12.0107
     123     2 O    8   -3.927499   13.957071    5.806726      6.00      15.9994
     124     3 C    6   -7.787423   14.409402    5.843951      4.00      12.0107
     125     3 C    6   -3.043826   15.004629    5.798250      4.00      12.0107
     126     3 C    6   -1.669518   14.912065    5.893831      4.00      12.0107
     127     3 C    6   -1.000566   16.148581    5.922302      4.00      12.0107
     128     2 O    8    4.596284   15.759823    5.981808      6.00      15.9994
     129     3 C    6    6.034679   12.145894    6.065540      4.00      12.0107
     130     3 C    6    3.232718   15.952128    5.989431      4.00      12.0107
     131     3 C    6    2.606678   17.179443    5.907778      4.00      12.0107
     132     3 C    6    1.232788   17.271612    5.821231      4.00      12.0107
     133     2 O    8   -5.108160   15.943706    6.004517      6.00      15.9994
     134     3 C    6   -6.562863   12.406251    6.117211      4.00      12.0107
     135     3 C    6   -3.770758   16.260509    5.866921      4.00      12.0107
     136     3 C    6   -3.066793   17.460329    5.852416      4.00      12.0107
     137     3 C    6   -1.687959   17.385751    5.908636      4.00      12.0107
     138     2 O    8    0.889973   22.360970    6.049434      6.00      15.9994
     139     3 C    6   -1.624527   25.350942    6.317961      4.00      12.0107
     140     3 C    6    0.531036   21.049985    5.946275      4.00      12.0107
     141     3 C    6    1.238574   19.837097    5.894926      4.00      12.0107
     142     3 C    6    0.560550   18.572311    5.864214      4.00      12.0107
     143     2 O    8    3.441522   13.714808    5.860096      6.00      15.9994
     144     3 C    6    7.146244   14.234403    5.487638      4.00      12.0107
     145     3 C    6    2.551215   14.747699    5.977662      4.00      12.0107
     146     3 C    6    1.120834   14.776054    5.985712      4.00      12.0107
     147     3 C    6    0.479238   16.056067    5.931323      4.00      12.0107
     148     2 O    8   19.708463    9.825530    5.770119      6.00      15.9994
     149     3 C    6   21.167822   13.324807    5.581878      4.00      12.0107
     150     3 C    6   18.346890    9.548737    6.033086      4.00      12.0107
     151     3 C    6   17.643842    8.348868    5.935420      4.00      12.0107
     152     3 C    6   16.211818    8.440478    6.013935      4.00      12.0107
     153     2 O    8   13.846284    3.305363    6.221234      6.00      15.9994
     154     3 C    6   16.372513    0.209810    6.246478      4.00      12.0107
     155     3 C    6   14.215350    4.627669    6.110225      4.00      12.0107
     156     3 C    6   13.495606    5.740975    6.011163      4.00      12.0107
     157     3 C    6   14.089725    7.041877    5.953835      4.00      12.0107
     158     2 O    8   11.028836   11.862847    5.886886      6.00      15.9994
     159     3 C    6    7.274776   11.482161    5.924419      4.00      12.0107
     160     3 C    6   11.964082   10.857143    5.872850      4.00      12.0107
     161     3 C    6   13.354395   10.847454    5.981736      4.00      12.0107
     162     3 C    6   14.004048    9.542085    5.893240      4.00      12.0107
     163     3 C    6   21.163417   11.913390    5.700164      4.00      12.0107
     164     3 C    6    8.432717   12.134013    5.649378      4.00      12.0107
     165     3 C    6   15.170318    0.997168    6.304700      4.00      12.0107
     166     3 C    6   -6.552290   13.794580    6.071447      4.00      12.0107
     167     3 C    6    6.023634   13.569076    5.823962      4.00      12.0107
     168     3 C    6   -0.440654   24.629007    6.283335      4.00      12.0107
     169     4 H    1   13.042363    1.017603    6.207293      1.00       1.0079
     170     4 H    1   17.363188    5.991787    6.375400      1.00       1.0079
     171     4 H    1   22.360961   10.144665    5.855226      1.00       1.0079
     172     4 H    1   15.904612   11.912426    6.346173      1.00       1.0079
     173     4 H    1    9.323772   14.043998    5.157456      1.00       1.0079
     174     4 H    1   11.279789    7.559863    5.619356      1.00       1.0079
     175     4 H    1    1.610981   24.536894    6.208591      1.00       1.0079
     176     4 H    1   -2.644786   19.883571    5.742980      1.00       1.0079
     177     4 H    1   -7.782410   15.466925    5.687714      1.00       1.0079
     178     4 H    1   -1.265810   13.875831    5.837596      1.00       1.0079
     179     4 H    1    5.130885   11.563061    6.208214      1.00       1.0079
     180     4 H    1    3.161445   18.100808    6.020330      1.00       1.0079
     181     4 H    1   -5.630386   11.879519    6.190162      1.00       1.0079
     182     4 H    1   -3.613791   18.390657    5.826684      1.00       1.0079
     183     4 H    1   -2.635362   24.933747    6.192241      1.00       1.0079
     184     4 H    1    2.357412   19.760039    5.817504      1.00       1.0079
     185     4 H    1    7.019561   15.304278    5.199259      1.00       1.0079
     186     4 H    1    0.570145   13.898728    6.339152      1.00       1.0079
     187     4 H    1   20.146131   13.729742    5.451304      1.00       1.0079
     188     4 H    1   18.228955    7.417846    5.831022      1.00       1.0079
     189     4 H    1   17.302669    0.658348    6.072246      1.00       1.0079
     190     4 H    1   12.427492    5.589984    5.977979      1.00       1.0079
     191     4 H    1    7.278766   10.408316    6.004032      1.00       1.0079
     192     4 H    1   13.845409   11.793417    5.983386      1.00       1.0079




 SCF PARAMETERS         Density guess:                                   RESTART
                        --------------------------------------------------------
                        max_scf:                                              50
                        max_scf_history:                                       0
                        max_diis:                                              4
                        --------------------------------------------------------
                        eps_scf:                                        1.00E-06
                        eps_scf_history:                                0.00E+00
                        eps_diis:                                       1.00E-01
                        eps_eigval:                                     1.00E-05
                        --------------------------------------------------------
                        level_shift [a.u.]:                                 0.00
                        --------------------------------------------------------
                        Outer loop SCF in use 
                        No variables optimised in outer loop
                        eps_scf                                         1.00E-06
                        max_scf                                               10
                        No outer loop optimization
                        step_size                                       5.00E-01

 PW_GRID| Information for grid number                                          1
 PW_GRID| Grid distributed over                                    56 processors
 PW_GRID| Real space group dimensions                                    56    1
 PW_GRID| the grid is blocked:                                                NO
 PW_GRID| Cutoff [a.u.]                                                    300.0
 PW_GRID| spherical cutoff:                                                   NO
 PW_GRID|   Bounds   1           -224     223                Points:         448
 PW_GRID|   Bounds   2           -231     230                Points:         462
 PW_GRID|   Bounds   3            -60      59                Points:         120
 PW_GRID| Volume element (a.u.^3)  0.1734E-02     Volume (a.u.^3)     43071.2925
 PW_GRID| Grid span                                                    FULLSPACE
 PW_GRID|   Distribution                         Average         Max         Min
 PW_GRID|   G-Vectors                           443520.0      443520      443520
 PW_GRID|   G-Rays                                 990.0         990         990
 PW_GRID|   Real Space Points                   443520.0      443520      443520

 PW_GRID| Information for grid number                                          2
 PW_GRID| Grid distributed over                                    56 processors
 PW_GRID| Real space group dimensions                                    56    1
 PW_GRID| the grid is blocked:                                                NO
 PW_GRID| Cutoff [a.u.]                                                    100.0
 PW_GRID| spherical cutoff:                                                   NO
 PW_GRID|   Bounds   1           -132     131                Points:         264
 PW_GRID|   Bounds   2           -132     131                Points:         264
 PW_GRID|   Bounds   3            -35      34                Points:          70
 PW_GRID| Volume element (a.u.^3)  0.8828E-02     Volume (a.u.^3)     43071.2925
 PW_GRID| Grid span                                                    FULLSPACE
 PW_GRID|   Distribution                         Average         Max         Min
 PW_GRID|   G-Vectors                            87120.0       89760       82368
 PW_GRID|   G-Rays                                 330.0         340         312
 PW_GRID|   Real Space Points                    87120.0       92400       73920

 PW_GRID| Information for grid number                                          3
 PW_GRID| Grid distributed over                                    56 processors
 PW_GRID| Real space group dimensions                                    56    1
 PW_GRID| the grid is blocked:                                                NO
 PW_GRID| Cutoff [a.u.]                                                     33.3
 PW_GRID| spherical cutoff:                                                   NO
 PW_GRID|   Bounds   1            -75      74                Points:         150
 PW_GRID|   Bounds   2            -77      76                Points:         154
 PW_GRID|   Bounds   3            -20      19                Points:          40
 PW_GRID| Volume element (a.u.^3)  0.4661E-01     Volume (a.u.^3)     43071.2925
 PW_GRID| Grid span                                                    FULLSPACE
 PW_GRID|   Distribution                         Average         Max         Min
 PW_GRID|   G-Vectors                            16500.0       16950       15900
 PW_GRID|   G-Rays                                 110.0         113         106
 PW_GRID|   Real Space Points                    16500.0       18480       12320

 PW_GRID| Information for grid number                                          4
 PW_GRID| Grid distributed over                                    56 processors
 PW_GRID| Real space group dimensions                                    56    1
 PW_GRID| the grid is blocked:                                                NO
 PW_GRID| Cutoff [a.u.]                                                     11.1
 PW_GRID| spherical cutoff:                                                   NO
 PW_GRID|   Bounds   1            -44      43                Points:          88
 PW_GRID|   Bounds   2            -44      43                Points:          88
 PW_GRID|   Bounds   3            -12      11                Points:          24
 PW_GRID| Volume element (a.u.^3)  0.2317         Volume (a.u.^3)     43071.2925
 PW_GRID| Grid span                                                    FULLSPACE
 PW_GRID|   Distribution                         Average         Max         Min
 PW_GRID|   G-Vectors                             3318.9        3960        2464
 PW_GRID|   G-Rays                                  37.7          45          28
 PW_GRID|   Real Space Points                     3318.9        4224        2112

 POISSON| Solver                                                        PERIODIC
 POISSON| Periodicity                                                        XYZ

 RS_GRID| Information for grid number                                          1
 RS_GRID|   Bounds   1           -224     223                Points:         448
 RS_GRID|   Bounds   2           -231     230                Points:         462
 RS_GRID|   Bounds   3            -60      59                Points:         120
 RS_GRID| Real space distribution over                                  7 groups
 RS_GRID| Real space distribution along direction                              1
 RS_GRID| Border size                                                         39
 RS_GRID| Real space distribution over                                  8 groups
 RS_GRID| Real space distribution along direction                              2
 RS_GRID| Border size                                                         39
 RS_GRID|   Distribution                         Average         Max         Min
 RS_GRID|   Planes                                 142.0         142         142
 RS_GRID|   Distribution                         Average         Max         Min
 RS_GRID|   Planes                                 135.8         136         135

 RS_GRID| Information for grid number                                          2
 RS_GRID|   Bounds   1           -132     131                Points:         264
 RS_GRID|   Bounds   2           -132     131                Points:         264
 RS_GRID|   Bounds   3            -35      34                Points:          70
 RS_GRID| Real space distribution over                                  7 groups
 RS_GRID| Real space distribution along direction                              1
 RS_GRID| Border size                                                         37
 RS_GRID| Real space distribution over                                  8 groups
 RS_GRID| Real space distribution along direction                              2
 RS_GRID| Border size                                                         37
 RS_GRID|   Distribution                         Average         Max         Min
 RS_GRID|   Planes                                 111.7         112         111
 RS_GRID|   Distribution                         Average         Max         Min
 RS_GRID|   Planes                                 107.0         107         107

 RS_GRID| Information for grid number                                          3
 RS_GRID|   Bounds   1            -75      74                Points:         150
 RS_GRID|   Bounds   2            -77      76                Points:         154
 RS_GRID|   Bounds   3            -20      19                Points:          40
 RS_GRID| Real space fully replicated
 RS_GRID| Group size                                                           1

 RS_GRID| Information for grid number                                          4
 RS_GRID|   Bounds   1            -44      43                Points:          88
 RS_GRID|   Bounds   2            -44      43                Points:          88
 RS_GRID|   Bounds   3            -12      11                Points:          24
 RS_GRID| Real space fully replicated
 RS_GRID| Group size                                                           1

 DISTRIBUTION OF THE PARTICLES (ROWS)
              Process row      Number of particles         Number of matrix rows
                        0                       49                            -1
                        1                       48                            -1
                        2                       48                            -1
                        3                       47                            -1
                      Sum                      192                            -1

 DISTRIBUTION OF THE PARTICLES (COLUMNS)
              Process col      Number of particles      Number of matrix columns
                        0                       14                            -1
                        1                       14                            -1
                        2                       14                            -1
                        3                       14                            -1
                        4                       13                            -1
                        5                       14                            -1
                        6                       14                            -1
                        7                       14                            -1
                        8                       14                            -1
                        9                       14                            -1
                       10                       12                            -1
                       11                       13                            -1
                       12                       14                            -1
                       13                       14                            -1
                      Sum                      192                            -1

 *******************************************************************************
 ***                     STARTING   CELL   OPTIMIZATION                      ***
 ***                                 L-BFGS                                  ***
 *******************************************************************************

 --------------------------
 OPTIMIZATION STEP:      1
 --------------------------

 CELL| Volume [angstrom^3]:                                             6382.507
 CELL| Vector a [angstrom]:      30.149     0.000     0.000    |a| =      30.149
 CELL| Vector b [angstrom]:     -15.688    26.244     0.000    |b| =      30.576
 CELL| Vector c [angstrom]:      -0.041    -0.072     8.067    |c| =       8.067
 CELL| Angle (b,c), alpha [degree]:                                       90.290
 CELL| Angle (a,c), beta  [degree]:                                       90.291
 CELL| Angle (a,b), gamma [degree]:                                      120.870
 CELL| Numerically orthorhombic:                                              NO

 -------------------------------------------------------------------------------
 ----                             MULTIGRID INFO                            ----
 -------------------------------------------------------------------------------
 count for grid        1:         642432          cutoff [a.u.]          300.00
 count for grid        2:         495264          cutoff [a.u.]          100.00
 count for grid        3:         371392          cutoff [a.u.]           33.33
 count for grid        4:         128352          cutoff [a.u.]           11.11
 total gridlevel count  :        1637440

 PW_GRID| Information for grid number                                          5
 PW_GRID| Grid distributed over                                    56 processors
 PW_GRID| Real space group dimensions                                    56    1
 PW_GRID| the grid is blocked:                                                NO
 PW_GRID| Cutoff [a.u.]                                                    300.0
 PW_GRID| spherical cutoff:                                                   NO
 PW_GRID|   Bounds   1           -224     223                Points:         448
 PW_GRID|   Bounds   2           -231     230                Points:         462
 PW_GRID|   Bounds   3            -60      59                Points:         120
 PW_GRID| Volume element (a.u.^3)  0.1734E-02     Volume (a.u.^3)     43071.2925
 PW_GRID| Grid span                                                    FULLSPACE
 PW_GRID|   Distribution                         Average         Max         Min
 PW_GRID|   G-Vectors                           443520.0      443520      443520
 PW_GRID|   G-Rays                                 990.0         990         990
 PW_GRID|   Real Space Points                   443520.0      443520      443520

 PW_GRID| Information for grid number                                          6
 PW_GRID| Grid distributed over                                    56 processors
 PW_GRID| Real space group dimensions                                    56    1
 PW_GRID| the grid is blocked:                                                NO
 PW_GRID| Cutoff [a.u.]                                                    100.0
 PW_GRID| spherical cutoff:                                                   NO
 PW_GRID|   Bounds   1           -132     131                Points:         264
 PW_GRID|   Bounds   2           -132     131                Points:         264
 PW_GRID|   Bounds   3            -35      34                Points:          70
 PW_GRID| Volume element (a.u.^3)  0.8828E-02     Volume (a.u.^3)     43071.2925
 PW_GRID| Grid span                                                    FULLSPACE
 PW_GRID|   Distribution                         Average         Max         Min
 PW_GRID|   G-Vectors                            87120.0       89760       82368
 PW_GRID|   G-Rays                                 330.0         340         312
 PW_GRID|   Real Space Points                    87120.0       92400       73920

 PW_GRID| Information for grid number                                          7
 PW_GRID| Grid distributed over                                    56 processors
 PW_GRID| Real space group dimensions                                    56    1
 PW_GRID| the grid is blocked:                                                NO
 PW_GRID| Cutoff [a.u.]                                                     33.3
 PW_GRID| spherical cutoff:                                                   NO
 PW_GRID|   Bounds   1            -75      74                Points:         150
 PW_GRID|   Bounds   2            -77      76                Points:         154
 PW_GRID|   Bounds   3            -20      19                Points:          40
 PW_GRID| Volume element (a.u.^3)  0.4661E-01     Volume (a.u.^3)     43071.2925
 PW_GRID| Grid span                                                    FULLSPACE
 PW_GRID|   Distribution                         Average         Max         Min
 PW_GRID|   G-Vectors                            16500.0       16950       15900
 PW_GRID|   G-Rays                                 110.0         113         106
 PW_GRID|   Real Space Points                    16500.0       18480       12320

 PW_GRID| Information for grid number                                          8
 PW_GRID| Grid distributed over                                    56 processors
 PW_GRID| Real space group dimensions                                    56    1
 PW_GRID| the grid is blocked:                                                NO
 PW_GRID| Cutoff [a.u.]                                                     11.1
 PW_GRID| spherical cutoff:                                                   NO
 PW_GRID|   Bounds   1            -44      43                Points:          88
 PW_GRID|   Bounds   2            -44      43                Points:          88
 PW_GRID|   Bounds   3            -12      11                Points:          24
 PW_GRID| Volume element (a.u.^3)  0.2317         Volume (a.u.^3)     43071.2925
 PW_GRID| Grid span                                                    FULLSPACE
 PW_GRID|   Distribution                         Average         Max         Min
 PW_GRID|   G-Vectors                             3318.9        3960        2464
 PW_GRID|   G-Rays                                  37.7          45          28
 PW_GRID|   Real Space Points                     3318.9        4224        2112

 POISSON| Solver                                                        PERIODIC
 POISSON| Periodicity                                                        XYZ

 RS_GRID| Information for grid number                                          5
 RS_GRID|   Bounds   1           -224     223                Points:         448
 RS_GRID|   Bounds   2           -231     230                Points:         462
 RS_GRID|   Bounds   3            -60      59                Points:         120
 RS_GRID| Real space distribution over                                  7 groups
 RS_GRID| Real space distribution along direction                              1
 RS_GRID| Border size                                                         40
 RS_GRID| Real space distribution over                                  8 groups
 RS_GRID| Real space distribution along direction                              2
 RS_GRID| Border size                                                         40
 RS_GRID|   Distribution                         Average         Max         Min
 RS_GRID|   Planes                                 144.0         144         144
 RS_GRID|   Distribution                         Average         Max         Min
 RS_GRID|   Planes                                 137.8         138         137

 RS_GRID| Information for grid number                                          6
 RS_GRID|   Bounds   1           -132     131                Points:         264
 RS_GRID|   Bounds   2           -132     131                Points:         264
 RS_GRID|   Bounds   3            -35      34                Points:          70
 RS_GRID| Real space distribution over                                  7 groups
 RS_GRID| Real space distribution along direction                              1
 RS_GRID| Border size                                                         37
 RS_GRID| Real space distribution over                                  8 groups
 RS_GRID| Real space distribution along direction                              2
 RS_GRID| Border size                                                         37
 RS_GRID|   Distribution                         Average         Max         Min
 RS_GRID|   Planes                                 111.7         112         111
 RS_GRID|   Distribution                         Average         Max         Min
 RS_GRID|   Planes                                 107.0         107         107

 RS_GRID| Information for grid number                                          7
 RS_GRID|   Bounds   1            -75      74                Points:         150
 RS_GRID|   Bounds   2            -77      76                Points:         154
 RS_GRID|   Bounds   3            -20      19                Points:          40
 RS_GRID| Real space fully replicated
 RS_GRID| Group size                                                           1

 RS_GRID| Information for grid number                                          8
 RS_GRID|   Bounds   1            -44      43                Points:          88
 RS_GRID|   Bounds   2            -44      43                Points:          88
 RS_GRID|   Bounds   3            -12      11                Points:          24
 RS_GRID| Real space fully replicated
 RS_GRID| Group size                                                           1

 DISTRIBUTION OF THE NEIGHBOR LISTS
              Total number of particle pairs:                              22953
              Total number of matrix elements:                           2695633
              Average number of particle pairs:                              410
              Maximum number of particle pairs:                              475
              Average number of matrix element:                            48137
              Maximum number of matrix elements:                           54290


 DISTRIBUTION OF THE OVERLAP MATRIX
              Number  of non-zero blocks:                                  10824
              Percentage non-zero blocks:                                  58.42
              Average number of blocks per CPU:                              194
              Maximum number of blocks per CPU:                              221
              Average number of matrix elements per CPU:                   22961
              Maximum number of matrix elements per CPU:                   25711

 Number of electrons:                                                        660
 Number of occupied orbitals:                                                330
 Number of molecular orbitals:                                               330

 Number of orbital functions:                                               2112
 Number of independent orbital functions:                                   2112

 Extrapolation method: initial_guess


 SCF WAVEFUNCTION OPTIMIZATION

  ----------------------------------- OT ---------------------------------------
  Minimizer      : DIIS                : direct inversion
                                         in the iterative subspace
                                         using   7 DIIS vectors
                                         safer DIIS on
  Preconditioner : FULL_ALL            : diagonalization, state selective
  Precond_solver : DEFAULT
  stepsize       :    0.15000000                  energy_gap     :    0.08000000
  eps_taylor     :   0.10000E-15                  max_taylor     :             4
  ----------------------------------- OT ---------------------------------------

  Step     Update method      Time    Convergence         Total energy    Change
  ------------------------------------------------------------------------------
     1 OT DIIS     0.15E+00    2.0     0.00028951     -1062.3663926120 -1.06E+03
     2 OT DIIS     0.15E+00    1.7     0.00011584     -1062.3725177190 -6.13E-03
     3 OT DIIS     0.15E+00    1.7     0.00001729     -1062.3736782939 -1.16E-03
     4 OT DIIS     0.15E+00    1.8     0.00000765     -1062.3736842967 -6.00E-06
     5 OT DIIS     0.15E+00    1.7     0.00000258     -1062.3736852532 -9.56E-07
     6 OT DIIS     0.15E+00    1.7     0.00000098     -1062.3736853839 -1.31E-07

  *** SCF run converged in     6 steps ***


  Electronic density on regular grids:       -659.9999999582        0.0000000418
  Core density on regular grids:              659.9999999501       -0.0000000499
  Total charge density on r-space grids:       -0.0000000081
  Total charge density g-space grids:          -0.0000000081

  Overlap energy of the core charge distribution:               0.00005392793861
[...]
 flops    96 x    10 x    10            223449600     100.0%      0.0%      0.0%
 flops     5 x     5 x    10            487086500     100.0%      0.0%      0.0%
 flops   525 x    10 x    10            489300000     100.0%      0.0%      0.0%
 flops   531 x    10 x    10            494892000     100.0%      0.0%      0.0%
 flops     5 x     1 x    13            581784450     100.0%      0.0%      0.0%
 flops    13 x     1 x     5            581784450     100.0%      0.0%      0.0%
 flops     5 x    32 x    32            604569600     100.0%      0.0%      0.0%
 flops    75 x    32 x    75            907200000     100.0%      0.0%      0.0%
 flops   528 x    10 x    10            984192000     100.0%      0.0%      0.0%
 flops    64 x    10 x    70           1038374400     100.0%      0.0%      0.0%
 flops    74 x    10 x    70           1200620400     100.0%      0.0%      0.0%
 flops    64 x    10 x    83           1231215360     100.0%      0.0%      0.0%
 flops    74 x    10 x    83           1423592760     100.0%      0.0%      0.0%
 flops    64 x    10 x    32           2383462400     100.0%      0.0%      0.0%
 flops    64 x    32 x    10           2383462400     100.0%      0.0%      0.0%
 flops     5 x    10 x     5           2585433000     100.0%      0.0%      0.0%
 flops    74 x    10 x    32           2755878400     100.0%      0.0%      0.0%
 flops    74 x    32 x    10           2755878400     100.0%      0.0%      0.0%
 flops    96 x    10 x    70           3115123200     100.0%      0.0%      0.0%
 flops     5 x    13 x    10           3467968400     100.0%      0.0%      0.0%
 flops    13 x     5 x    10           3468349300     100.0%      0.0%      0.0%
 flops    96 x    10 x    83           3693646080     100.0%      0.0%      0.0%
 flops    13 x     1 x    13           4157207340     100.0%      0.0%      0.0%
 flops   525 x    10 x    70           4652550000     100.0%      0.0%      0.0%
 flops   531 x    10 x    70           4705722000     100.0%      0.0%      0.0%
 flops    13 x    32 x    32           4715642880     100.0%      0.0%      0.0%
 flops   525 x    10 x    83           5516595000     100.0%      0.0%      0.0%
 flops   531 x    10 x    83           5579641800     100.0%      0.0%      0.0%
 flops    96 x    32 x    10           7150387200     100.0%      0.0%      0.0%
 flops    96 x    10 x    32           7150387200     100.0%      0.0%      0.0%
 flops    64 x    10 x    75           7787808000     100.0%      0.0%      0.0%
 flops    74 x    10 x    75           9004653000     100.0%      0.0%      0.0%
 flops   528 x    10 x    70           9358272000     100.0%      0.0%      0.0%
 flops   528 x    10 x    83          11096236800     100.0%      0.0%      0.0%
 flops     5 x     5 x    32          15586768000     100.0%      0.0%      0.0%
 flops   525 x    32 x    10          15657600000     100.0%      0.0%      0.0%
 flops   525 x    10 x    32          15657600000     100.0%      0.0%      0.0%
 flops   531 x    10 x    32          15836544000     100.0%      0.0%      0.0%
 flops   531 x    32 x    10          15836544000     100.0%      0.0%      0.0%
 flops     5 x    10 x    13          18956904200     100.0%      0.0%      0.0%
 flops    13 x    10 x     5          18956904200     100.0%      0.0%      0.0%
 flops    96 x    10 x    75          23363424000     100.0%      0.0%      0.0%
 flops    13 x    13 x    10          25311299000     100.0%      0.0%      0.0%
 flops   528 x    10 x    32          31494144000     100.0%      0.0%      0.0%
 flops   528 x    32 x    10          31494144000     100.0%      0.0%      0.0%
 flops    64 x    32 x    70          33331200000     100.0%      0.0%      0.0%
 flops   525 x    10 x    75          34894125000     100.0%      0.0%      0.0%
 flops   531 x    10 x    75          35292915000     100.0%      0.0%      0.0%
 flops    74 x    32 x    70          38419852800     100.0%      0.0%      0.0%
 flops    64 x    32 x    83          39521280000     100.0%      0.0%      0.0%
 flops    74 x    32 x    83          45554968320     100.0%      0.0%      0.0%
 flops   528 x    10 x    75          70187040000     100.0%      0.0%      0.0%
 flops    64 x    32 x    32          76270796800     100.0%      0.0%      0.0%
 flops     5 x    32 x     5          82733856000     100.0%      0.0%      0.0%
 flops    74 x    32 x    32          88188108800     100.0%      0.0%      0.0%
 flops    96 x    32 x    70          99993600000     100.0%      0.0%      0.0%
 flops     5 x    13 x    32         110974988800     100.0%      0.0%      0.0%
 flops    13 x     5 x    32         110987177600     100.0%      0.0%      0.0%
 flops    96 x    32 x    83         118563840000     100.0%      0.0%      0.0%
 flops    13 x    10 x    13         136776290040     100.0%      0.0%      0.0%
 flops   525 x    32 x    70         148881600000     100.0%      0.0%      0.0%
 flops   531 x    32 x    70         150583104000     100.0%      0.0%      0.0%
 flops   525 x    32 x    83         176531040000     100.0%      0.0%      0.0%
 flops   531 x    32 x    83         178548537600     100.0%      0.0%      0.0%
 flops    96 x    32 x    32         228812390400     100.0%      0.0%      0.0%
 flops    64 x    32 x    75         249984000000     100.0%      0.0%      0.0%
 flops    74 x    32 x    75         288148896000     100.0%      0.0%      0.0%
 flops   528 x    32 x    70         299464704000     100.0%      0.0%      0.0%
 flops   528 x    32 x    83         355079577600     100.0%      0.0%      0.0%
 flops   525 x    32 x    32         501043200000     100.0%      0.0%      0.0%
 flops   531 x    32 x    32         506769408000     100.0%      0.0%      0.0%
 flops     5 x    32 x    13         606620934400     100.0%      0.0%      0.0%
 flops    13 x    32 x     5         606620934400     100.0%      0.0%      0.0%
 flops    96 x    32 x    75         749952000000     100.0%      0.0%      0.0%
 flops    13 x    13 x    32         809961568000     100.0%      0.0%      0.0%
 flops   528 x    32 x    32        1007812608000     100.0%      0.0%      0.0%
 flops   525 x    32 x    75        1116612000000     100.0%      0.0%      0.0%
 flops   531 x    32 x    75        1129373280000     100.0%      0.0%      0.0%
 flops   528 x    32 x    75        2245985280000     100.0%      0.0%      0.0%
 flops    13 x    32 x    13        4376841281280     100.0%      0.0%      0.0%
 flops inhomo. stacks                314187396810     100.0%      0.0%      0.0%
 flops total                        17.516831E+12     100.0%      0.0%      0.0%
 flops max/rank                    427.491246E+09     100.0%      0.0%      0.0%
 matmuls inhomo. stacks                    273153     100.0%      0.0%      0.0%
 matmuls total                         1010215060     100.0%      0.0%      0.0%
 number of processed stacks              31296126     100.0%      0.0%      0.0%
 average stack size                                    32.3       0.0       0.0
 marketing flops                    23.607393E+12
 -------------------------------------------------------------------------------
 # multiplications                          27554
 max memory usage/rank             695.259136E+06
 # max total images/rank                        7
 # max 3D layers                                1
 # MPI messages exchanged               180533808
 MPI messages size (bytes):
  total size                         3.870131E+12
  min size                           0.000000E+00
  max size                         352.584000E+03
  average size                      21.437154E+03
 MPI breakdown and total messages size (bytes):
             size <=      128           101563878                  1217840
       128 < size <=     8192            21350836             142013260272
      8192 < size <=    32768            36857730             715806527488
     32768 < size <=   131072             8452964             394569956352
    131072 < size <=  4194304            12308400            2617082114608
   4194304 < size <= 16777216                   0                        0
  16777216 < size                               0                        0
 -------------------------------------------------------------------------------

 *** WARNING in dbcsr/mm/dbcsr_mm.F:267 :: Using a non-square number of ***
 *** MPI ranks might lead to poor performance.                          ***
 *** Used ranks: 56                                                     ***
 *** Suggested: 49 121                                                  ***

 -------------------------------------------------------------------------------
 
 MEMORY| Estimated peak process memory [MiB]                                 664

 -------------------------------------------------------------------------------
 ----                             MULTIGRID INFO                            ----
 -------------------------------------------------------------------------------
 count for grid        1:         685212          cutoff [a.u.]          300.00
 count for grid        2:         554838          cutoff [a.u.]          100.00
 count for grid        3:         478352          cutoff [a.u.]           33.33
 count for grid        4:         207864          cutoff [a.u.]           11.11
 total gridlevel count  :        1926266

 -------------------------------------------------------------------------------
 -                                                                             -
 -                         MESSAGE PASSING PERFORMANCE                         -
 -                                                                             -
 -------------------------------------------------------------------------------

 ROUTINE             CALLS      AVE VOLUME [Bytes]
 MP_Group             2983
 MP_Bcast             8182                  94535.
 MP_Allreduce        94627                   1417.
 MP_Sync              1030
 MP_Alltoall        137392                2503918.
 MP_SendRecv         26840                   2005.
 MP_ISendRecv       231990                  88972.
 MP_Wait           3836701
 MP_comm_split         538
 MP_ISend          6702462                  22369.
 MP_IRecv          6715490                  22160.
 MP_Recv              1599                 405504.
 MP_Memory         4543716
 -------------------------------------------------------------------------------


 -------------------------------------------------------------------------------
 -                                                                             -
 -                           R E F E R E N C E S                               -
 -                                                                             -
 -------------------------------------------------------------------------------
 
 CP2K version 5.1, the CP2K developers group (2017).
 CP2K is freely available from https://www.cp2k.org/ .

 Schuett, Ole; Messmer, Peter; Hutter, Juerg; VandeVondele, Joost. 
 Electronic Structure Calculations on Graphics Processing Units, John Wiley & Sons, Ltd, 173-190 (2016). 
 GPU-Accelerated Sparse Matrix-Matrix Multiplication for Linear Scaling Density Functional Theory.
 http://dx.doi.org/10.1002/9781118670712.ch8


 Borstnik, U; VandeVondele, J; Weber, V; Hutter, J. 
 PARALLEL COMPUTING, 40 (5-6), 47-58 (2014). 
 Sparse matrix multiplication: The distributed block-compressed sparse
 row library.
 http://dx.doi.org/10.1016/j.parco.2014.03.012


 Hutter, J; Iannuzzi, M; Schiffmann, F; VandeVondele, J. 
 WILEY INTERDISCIPLINARY REVIEWS-COMPUTATIONAL MOLECULAR SCIENCE, 4 (1), 15-25 (2014). 
 CP2K: atomistic simulations of condensed matter systems.
 http://dx.doi.org/10.1002/wcms.1159


 Grimme, S; Ehrlich, S; Goerigk, L. 
 JOURNAL OF COMPUTATIONAL CHEMISTRY, 32, 1456 (2011). 
 Effect of the damping function in dispersion corrected density functional theory.
 http://dx.doi.org/10.1002/jcc.21759


 Grimme, S; Antony, J; Ehrlich, S; Krieg, H. 
 JOURNAL OF CHEMICAL PHYSICS, 132 (15), 154104 (2010). 
 A consistent and accurate ab initio parametrization of density
 functional dispersion correction (DFT-D) for the 94 elements H-Pu.
 http://dx.doi.org/10.1063/1.3382344


 VandeVondele, J; Hutter, J. 
 JOURNAL OF CHEMICAL PHYSICS, 127 (11), 114105 (2007). 
 Gaussian basis sets for accurate calculations on molecular systems in
 gas and condensed phases.
 http://dx.doi.org/10.1063/1.2770708


 Krack, M. 
 THEORETICAL CHEMISTRY ACCOUNTS, 114 (1-3), 145-152 (2005). 
 Pseudopotentials for H to Kr optimized for gradient-corrected
 exchange-correlation functionals.
 http://dx.doi.org/10.1007/s00214-005-0655-y


 VandeVondele, J; Krack, M; Mohamed, F; Parrinello, M; Chassaing, T;
 Hutter, J. COMPUTER PHYSICS COMMUNICATIONS, 167 (2), 103-128 (2005). 
 QUICKSTEP: Fast and accurate density functional calculations using a
 mixed Gaussian and plane waves approach.
 http://dx.doi.org/10.1016/j.cpc.2004.12.014


 Frigo, M; Johnson, SG. 
 PROCEEDINGS OF THE IEEE, 93 (2), 216-231 (2005). 
 The design and implementation of FFTW3.
 http://dx.doi.org/10.1109/JPROC.2004.840301


 Kolafa, J. 
 JOURNAL OF COMPUTATIONAL CHEMISTRY, 25 (3), 335-342 (2004). 
 Time-reversible always stable predictor-corrector method for molecular dynamics of polarizable molecules.
 http://dx.doi.org/10.1002/jcc.10385


 VandeVondele, J; Hutter, J. 
 JOURNAL OF CHEMICAL PHYSICS, 118 (10), 4365-4369 (2003). 
 An efficient orbital transformation method for electronic structure
 calculations.
 http://dx.doi.org/10.1063/1.1543154


 Hartwigsen, C; Goedecker, S; Hutter, J. 
 PHYSICAL REVIEW B, 58 (7), 3641-3662 (1998). 
 Relativistic separable dual-space Gaussian pseudopotentials from H to Rn.
 http://dx.doi.org/10.1103/PhysRevB.58.3641


 Lippert, G; Hutter, J; Parrinello, M. 
 MOLECULAR PHYSICS, 92 (3), 477-487 (1997). 
 A hybrid Gaussian and plane wave density functional scheme.
 http://dx.doi.org/10.1080/002689797170220


 Perdew, JP; Burke, K; Ernzerhof, M. 
 PHYSICAL REVIEW LETTERS, 77 (18), 3865-3868 (1996). 
 Generalized gradient approximation made simple.
 http://dx.doi.org/10.1103/PhysRevLett.77.3865


 Goedecker, S; Teter, M; Hutter, J. 
 PHYSICAL REVIEW B, 54 (3), 1703-1710 (1996). 
 Separable dual-space Gaussian pseudopotentials.
 http://dx.doi.org/10.1103/PhysRevB.54.1703


 BYRD, RH; LU, PH; NOCEDAL, J; ZHU, CY. 
 SIAM JOURNAL ON SCIENTIFIC COMPUTING, 16 (5), 1190-1208 (1995). 
 A LIMITED MEMORY ALGORITHM FOR BOUND CONSTRAINED OPTIMIZATION.
 http://dx.doi.org/10.1137/0916069


 -------------------------------------------------------------------------------
 -                                                                             -
 -                                T I M I N G                                  -
 -                                                                             -
 -------------------------------------------------------------------------------
 SUBROUTINE                       CALLS  ASD         SELF TIME        TOTAL TIME
                                MAXIMUM       AVERAGE  MAXIMUM  AVERAGE  MAXIMUM
 CP2K                                 1  1.0    0.066    0.090 2232.354 2232.362
 cp_cell_opt                          1  2.0    0.007    0.016 2231.350 2231.355
 geoopt_lbfgs                         1  3.0    0.001    0.006 2231.342 2231.349
 cp_eval_at                         123  5.0    0.015    0.027 2230.720 2230.725
 cp_opt_gopt_step                   119  4.0    0.010    0.033 2199.792 2199.792
 qs_forces                          122  6.0    0.019    0.023 2199.112 2199.120
 qs_energies                        123  7.0    0.020    0.031 1994.502 1994.538
 scf_env_do_scf                     123  8.0    0.016    0.051 1862.714 1862.724
 scf_env_do_scf_inner_loop          932  9.0    0.033    0.055 1639.134 1640.174
 rebuild_ks_matrix                 1054 10.6    0.005    0.007 1346.064 1346.430
 qs_ks_build_kohn_sham_matrix      1054 11.6    0.139    0.193 1346.059 1346.423
 qs_ks_update_qs_env               1055 10.0    0.007    0.008 1143.482 1143.802
 pw_transfer                      20154 14.4    1.419    1.591  745.650  771.433
 fft_wrap_pw1pw2                  18046 15.5    0.158    0.175  737.568  763.303
 fft_wrap_pw1pw2_300              11719 16.5   47.393   48.615  710.808  735.912
 qs_vxc_create                     1054 12.6    0.024    0.027  637.694  638.258
 xc_vxc_pw_create                  1054 13.6   28.125   29.801  637.671  638.235
 qs_rho_update_rho                 1055 10.1    0.006    0.009  631.385  631.924
 calculate_rho_elec                1055 11.1  373.955  385.498  631.378  631.918
 fft3d_ps                         18046 17.5  308.316  316.270  600.953  627.578
 sum_up_and_integrate              1054 12.6    3.751    3.838  587.685  588.647
 integrate_v_rspace                1054 13.6  384.909  395.578  583.932  584.899
 xc_rho_set_and_dset_create        1054 14.6    2.962    3.040  319.517  348.222
 density_rs2pw                     1055 12.1    0.057    0.064  240.886  258.971
 rs_pw_transfer                    8681 14.3    0.084    0.100  215.927  234.683
 init_scf_loop                      123  9.0    0.004    0.011  222.349  222.374
 mp_alltoall_z22v                 18046 19.5  190.228  219.552  190.228  219.552
 qs_ks_update_qs_env_forces         122  7.0    0.001    0.001  202.793  202.837
 potential_pw2rs                   1054 14.6    0.185    0.197  178.808  179.617
 yz_to_x                           8559 18.0   36.980   39.114  139.740  166.988
 x_to_yz                           9487 18.9   64.980   66.358  152.448  155.311
 dbcsr_multiply_generic           27554 13.9    1.404    1.499  125.761  127.056
 xc_functional_eval                1054 15.6    0.010    0.011   91.266  119.994
 pbe_lda_eval                      1054 16.6   91.256  119.983   91.256  119.983
 multiply_cannon                  27554 14.9    6.851    7.367   87.936   91.089
 qs_scf_new_mos                     932 10.0    0.005    0.008   89.544   90.489
 qs_scf_loop_do_ot                  932 11.0    0.016    0.034   89.538   90.483
 mp_waitany                       60792 16.2   62.469   89.678   62.469   89.678
 rs_pw_transfer_RS2PW_300          1178 13.9   41.808   48.494   69.364   89.209
 init_scf_run                       123  8.0    0.004    0.012   86.816   86.821
 scf_env_initial_rho_setup          123  9.0    0.002    0.006   86.810   86.815
 wfi_extrapolate                    123 10.0    0.017    0.035   85.917   85.922
 ot_scf_mini                        932 12.0    0.048    0.057   83.751   84.491
 rs_pw_transfer_PW2RS_300          1176 16.2   49.461   52.087   72.616   79.444
 mp_waitall_1                   3775909 17.2   52.010   77.903   52.010   77.903
 prepare_preconditioner             123 10.0    0.001    0.001   68.693   68.816
 ot_mini                           1383 11.7    0.010    0.012   66.505   67.342
 make_preconditioner                123 11.0    0.004    0.006   63.227   63.265
 make_full_all                      123 12.0    0.023    0.029   58.046   58.068
 multiply_cannon_metrocomm3      385756 15.9    0.880    0.959   17.672   51.193
 pw_scatter_p                      9487 17.9   44.566   45.103   44.566   45.103
 -------------------------------------------------------------------------------

 The number of warnings for this run is : 1
 
 -------------------------------------------------------------------------------
  **** **** ******  **  PROGRAM ENDED AT                 2019-02-15 23:26:16.181
 ***** ** ***  *** **   PROGRAM RAN ON                                      g121
 **    ****   ******    PROGRAM RAN BY                                    ongari
 ***** **    ** ** **   PROGRAM PROCESS ID                                  3053
  **** **  *******  **  PROGRAM STOPPED IN /scratch/ongari/aiida_run/f6/0b/00f9-
                                           2d8c-402a-9a5c-10aab21a7b4c
