 DBCSR| Multiplication driver                                               BLAS
 DBCSR| Multrec recursion limit                                              512
 DBCSR| Multiplication stack size                                           1000
 DBCSR| Maximum elements for images                                    UNLIMITED
 DBCSR| Multiplicative factor virtual images                                   1
 DBCSR| Multiplication size stacks                                             3
 DBCSR| Number of 3D layers                                               SINGLE
 DBCSR| Use MPI memory allocation                                              T
 DBCSR| Use RMA algorithm                                                      F
 DBCSR| Use Communication thread                                               T
 DBCSR| Communication thread load                                             87


  **** **** ******  **  PROGRAM STARTED AT               2019-06-26 14:09:00.606
 ***** ** ***  *** **   PROGRAM STARTED ON                                  f202
 **    ****   ******    PROGRAM STARTED BY                                ongari
 ***** **    ** ** **   PROGRAM PROCESS ID                                  2063
  **** **  *******  **  PROGRAM STARTED IN /home/ongari/testing_cp2k/50_15180N2_
                                           standard

 CP2K| version string:                                          CP2K version 5.1
 CP2K| source code revision number:                                    svn:18091
 CP2K| cp2kflags: libint fftw3 pexsi parallel mpi3 scalapack libderiv_max_am1=5 
 CP2K|            libint_max_am=6
 CP2K| is freely available from                            https://www.cp2k.org/
 CP2K| Program compiled at                          Thu Jul 5 11:15:01 CEST 2018
 CP2K| Program compiled on                                                  f016
 CP2K| Program compiled for                  linux-rhel7-x86_E5v4_Mellanox-intel
 CP2K| Data directory path            /home/ongari/aiida-database/data/cp2k/data
 CP2K| Input file name                                                 aiida.inp
 
 GLOBAL| Force Environment number                                              1
 GLOBAL| Basis set file name                                        BASIS_MOLOPT
 GLOBAL| Potential file name                                      GTH_POTENTIALS
 GLOBAL| MM Potential file name                                     MM_POTENTIAL
 GLOBAL| Coordinate file name                                      __STD_INPUT__
 GLOBAL| Method name                                                        CP2K
 GLOBAL| Project name                                                      aiida
 GLOBAL| Preferred FFT library                                             FFTW3
 GLOBAL| Preferred diagonalization lib.                                       SL
 GLOBAL| Run type                                                       CELL_OPT
 GLOBAL| All-to-all communication in single precision                          F
 GLOBAL| FFTs using library dependent lengths                                  T
 GLOBAL| Global print level                                               MEDIUM
 GLOBAL| Total number of message passing processes                           112
 GLOBAL| Number of threads for this process                                    1
 GLOBAL| This output is from process                                           0
 GLOBAL| CPU model name :  Intel(R) Xeon(R) CPU E5-2690 v4 @ 2.60GHz

 MEMORY| system memory details [Kb]
 MEMORY|                        rank 0           min           max       average
 MEMORY| MemTotal            131627068     131627068     131627068     131627068
 MEMORY| MemFree             114484860     114322492     114580012     114441427
 MEMORY| Buffers                  3708          3148          5736          4578
 MEMORY| Cached                 319044        316776        321180        318639
 MEMORY| Slab                  1364116       1350312       1369864       1361902
 MEMORY| SReclaimable            51800         48640         52996         51292
 MEMORY| MemLikelyFree       114859412     114694928     114951164     114815936


 *** Fundamental physical constants (SI units) ***

 *** Literature: B. J. Mohr and B. N. Taylor,
 ***             CODATA recommended values of the fundamental physical
 ***             constants: 2006, Web Version 5.1
 ***             http://physics.nist.gov/constants

 Speed of light in vacuum [m/s]                             2.99792458000000E+08
 Magnetic constant or permeability of vacuum [N/A**2]       1.25663706143592E-06
 Electric constant or permittivity of vacuum [F/m]          8.85418781762039E-12
 Planck constant (h) [J*s]                                  6.62606896000000E-34
 Planck constant (h-bar) [J*s]                              1.05457162825177E-34
 Elementary charge [C]                                      1.60217648700000E-19
 Electron mass [kg]                                         9.10938215000000E-31
 Electron g factor [ ]                                     -2.00231930436220E+00
 Proton mass [kg]                                           1.67262163700000E-27
 Fine-structure constant                                    7.29735253760000E-03
 Rydberg constant [1/m]                                     1.09737315685270E+07
 Avogadro constant [1/mol]                                  6.02214179000000E+23
 Boltzmann constant [J/K]                                   1.38065040000000E-23
 Atomic mass unit [kg]                                      1.66053878200000E-27
 Bohr radius [m]                                            5.29177208590000E-11

 *** Conversion factors ***

 [u] -> [a.u.]                                              1.82288848426455E+03
 [Angstrom] -> [Bohr] = [a.u.]                              1.88972613288564E+00
 [a.u.] = [Bohr] -> [Angstrom]                              5.29177208590000E-01
 [a.u.] -> [s]                                              2.41888432650478E-17
 [a.u.] -> [fs]                                             2.41888432650478E-02
 [a.u.] -> [J]                                              4.35974393937059E-18
 [a.u.] -> [N]                                              8.23872205491840E-08
 [a.u.] -> [K]                                              3.15774647902944E+05
 [a.u.] -> [kJ/mol]                                         2.62549961709828E+03
 [a.u.] -> [kcal/mol]                                       6.27509468713739E+02
 [a.u.] -> [Pa]                                             2.94210107994716E+13
 [a.u.] -> [bar]                                            2.94210107994716E+08
 [a.u.] -> [atm]                                            2.90362800883016E+08
 [a.u.] -> [eV]                                             2.72113838565563E+01
 [a.u.] -> [Hz]                                             6.57968392072181E+15
 [a.u.] -> [1/cm] (wave numbers)                            2.19474631370540E+05
 [a.u./Bohr**2] -> [1/cm]                                   5.14048714338585E+03
 

 CELL_TOP| Volume [angstrom^3]:                                         8538.591
 CELL_TOP| Vector a [angstrom    35.844     0.000     0.000    |a| =      35.844
 CELL_TOP| Vector b [angstrom    -0.945    35.810     0.000    |b| =      35.822
 CELL_TOP| Vector c [angstrom    -3.260     2.799     6.652    |c| =       7.919
 CELL_TOP| Angle (b,c), alpha [degree]:                                   68.644
 CELL_TOP| Angle (a,c), beta  [degree]:                                  114.311
 CELL_TOP| Angle (a,b), gamma [degree]:                                   91.511
 CELL_TOP| Numerically orthorhombic:                                          NO
 
 GENERATE|  Preliminary Number of Bonds generated:                             0
 GENERATE|  Achieved consistency in connectivity generation.

 CELL| Volume [angstrom^3]:                                             8538.591
 CELL| Vector a [angstrom]:      35.844     0.000     0.000    |a| =      35.844
 CELL| Vector b [angstrom]:      -0.945    35.810     0.000    |b| =      35.822
 CELL| Vector c [angstrom]:      -3.260     2.799     6.652    |c| =       7.919
 CELL| Angle (b,c), alpha [degree]:                                       68.644
 CELL| Angle (a,c), beta  [degree]:                                      114.311
 CELL| Angle (a,b), gamma [degree]:                                       91.511
 CELL| Numerically orthorhombic:                                              NO

 CELL_REF| Volume [angstrom^3]:                                         8538.591
 CELL_REF| Vector a [angstrom    35.844     0.000     0.000    |a| =      35.844
 CELL_REF| Vector b [angstrom    -0.945    35.810     0.000    |b| =      35.822
 CELL_REF| Vector c [angstrom    -3.260     2.799     6.652    |c| =       7.919
 CELL_REF| Angle (b,c), alpha [degree]:                                   68.644
 CELL_REF| Angle (a,c), beta  [degree]:                                  114.311
 CELL_REF| Angle (a,b), gamma [degree]:                                   91.511
 CELL_REF| Numerically orthorhombic:                                          NO

 *******************************************************************************
 *******************************************************************************
 **                                                                           **
 **     #####                         ##              ##                      **
 **    ##   ##            ##          ##              ##                      **
 **   ##     ##                       ##            ######                    **
 **   ##     ##  ##   ##  ##   #####  ##  ##   ####   ##    #####    #####    **
 **   ##     ##  ##   ##  ##  ##      ## ##   ##      ##   ##   ##  ##   ##   **
 **   ##  ## ##  ##   ##  ##  ##      ####     ###    ##   ######   ######    **
 **    ##  ###   ##   ##  ##  ##      ## ##      ##   ##   ##       ##        **
 **     #######   #####   ##   #####  ##  ##  ####    ##    #####   ##        **
 **           ##                                                    ##        **
 **                                                                           **
 **                                                ... make the atoms dance   **
 **                                                                           **
 **            Copyright (C) by CP2K developers group (2000 - 2017)           **
 **                                                                           **
 *******************************************************************************

 DFT| Spin unrestricted (spin-polarized) Kohn-Sham calculation               UKS
 DFT| Multiplicity                                                             3
 DFT| Number of spin states                                                    2
 DFT| Charge                                                                   0
 DFT| Self-interaction correction (SIC)                                       NO
 DFT| Cutoffs: density                                              1.000000E-10
 DFT|          gradient                                             1.000000E-10
 DFT|          tau                                                  1.000000E-10
 DFT|          cutoff_smoothing_range                               0.000000E+00
 DFT| XC density smoothing                                                  NONE
 DFT| XC derivatives                                                          PW
 FUNCTIONAL| ROUTINE=NEW
 FUNCTIONAL| PBE:
 FUNCTIONAL| J.P.Perdew, K.Burke, M.Ernzerhof, Phys. Rev. Letter, vol. 77, n 18,
 FUNCTIONAL|  pp. 3865-3868, (1996){spin polarized}                             
 vdW POTENTIAL|                                                   Pair Potential
 vdW POTENTIAL|          DFT-D3 (Version 3.1)
 vdW POTENTIAL|          Potential Form: S. Grimme et al, JCP 132: 154104 (2010)
 vdW POTENTIAL|          BJ Damping: S. Grimme et al, JCC 32: 1456 (2011)
 vdW POTENTIAL|          Cutoff Radius [Bohr]:                             20.00
 vdW POTENTIAL|          s6 Scaling Factor:                               1.0000
 vdW POTENTIAL|          a1 Damping Factor:                               0.4289
 vdW POTENTIAL|          s8 Scaling Factor:                               0.7875
 vdW POTENTIAL|          a2 Damping Factor:                               4.4407
 vdW POTENTIAL|          Cutoff for CN calculation:                   0.1000E-05

 QS| Method:                                                                 GPW
 QS| Density plane wave grid type                        NON-SPHERICAL FULLSPACE
 QS| Number of grid levels:                                                    4
 QS| Density cutoff [a.u.]:                                                300.0
 QS| Multi grid cutoff [a.u.]: 1) grid level                               300.0
 QS|                           2) grid level                               100.0
 QS|                           3) grid level                                33.3
 QS|                           4) grid level                                11.1
 QS| Grid level progression factor:                                          3.0
 QS| Relative density cutoff [a.u.]:                                        25.0
 QS| Consistent realspace mapping and integration 
 QS| Interaction thresholds: eps_pgf_orb:                                1.0E-05
 QS|                         eps_filter_matrix:                          0.0E+00
 QS|                         eps_core_charge:                            1.0E-12
 QS|                         eps_rho_gspace:                             1.0E-10
 QS|                         eps_rho_rspace:                             1.0E-10
 QS|                         eps_gvg_rspace:                             1.0E-05
 QS|                         eps_ppl:                                    1.0E-02
 QS|                         eps_ppnl:                                   1.0E-07


 ATOMIC KIND INFORMATION

  1. Atomic kind: C                                     Number of atoms:     168

     Orbital Basis Set                                     DZVP-MOLOPT-SR-GTH-q4

       Number of orbital shell sets:                                           1
       Number of orbital shells:                                               5
       Number of primitive Cartesian functions:                                5
       Number of Cartesian basis functions:                                   14
       Number of spherical basis functions:                                   13
       Norm type:                                                              2

       Normalised Cartesian orbitals:

                        Set   Shell   Orbital            Exponent    Coefficient

                          1       1    2s                5.605331       0.322515
                                                         2.113016       0.213043
                                                         0.769911      -0.209686
                                                         0.348157      -0.219794
                                                         0.128212      -0.022789

                          1       2    3s                5.605331       0.552234
                                                         2.113016       0.082072
                                                         0.769911       0.007843
                                                         0.348157       0.136893
                                                         0.128212       0.074283

                          1       3    3px               5.605331      -0.703879
                                                         2.113016      -0.642521
                                                         0.769911      -0.374851
                                                         0.348157      -0.139743
                                                         0.128212      -0.027849
                          1       3    3py               5.605331      -0.703879
                                                         2.113016      -0.642521
                                                         0.769911      -0.374851
                                                         0.348157      -0.139743
                                                         0.128212      -0.027849
                          1       3    3pz               5.605331      -0.703879
                                                         2.113016      -0.642521
                                                         0.769911      -0.374851
                                                         0.348157      -0.139743
                                                         0.128212      -0.027849

                          1       4    4px               5.605331      -0.480376
                                                         2.113016      -0.552894
                                                         0.769911      -0.316145
                                                         0.348157       0.210505
                                                         0.128212       0.076095
                          1       4    4py               5.605331      -0.480376
                                                         2.113016      -0.552894
                                                         0.769911      -0.316145
                                                         0.348157       0.210505
                                                         0.128212       0.076095
                          1       4    4pz               5.605331      -0.480376
                                                         2.113016      -0.552894
                                                         0.769911      -0.316145
                                                         0.348157       0.210505
                                                         0.128212       0.076095

                          1       5    4dx2              5.605331       0.640026
                                                         2.113016       0.274300
                                                         0.769911       0.446711
                                                         0.348157       0.028674
                                                         0.128212       0.029790
                          1       5    4dxy              5.605331       1.108557
                                                         2.113016       0.475102
                                                         0.769911       0.773726
                                                         0.348157       0.049666
                                                         0.128212       0.051599
                          1       5    4dxz              5.605331       1.108557
                                                         2.113016       0.475102
                                                         0.769911       0.773726
                                                         0.348157       0.049666
                                                         0.128212       0.051599
                          1       5    4dy2              5.605331       0.640026
                                                         2.113016       0.274300
                                                         0.769911       0.446711
                                                         0.348157       0.028674
                                                         0.128212       0.029790
                          1       5    4dyz              5.605331       1.108557
                                                         2.113016       0.475102
                                                         0.769911       0.773726
                                                         0.348157       0.049666
                                                         0.128212       0.051599
                          1       5    4dz2              5.605331       0.640026
                                                         2.113016       0.274300
                                                         0.769911       0.446711
                                                         0.348157       0.028674
                                                         0.128212       0.029790

     GTH Potential information for                                    GTH-PBE-q4

       Description:                       Goedecker-Teter-Hutter pseudopotential
                                           Goedecker et al., PRB 54, 1703 (1996)
                                          Hartwigsen et al., PRB 58, 3641 (1998)
                                                      Krack, TCA 114, 145 (2005)

       Gaussian exponent of the core charge distribution:               4.364419
       Electronic configuration (s p d ...):                               2   2

       Parameters of the local part of the GTH pseudopotential:

                          rloc        C1          C2          C3          C4
                        0.338471   -8.803674    1.339211

       Parameters of the non-local part of the GTH pseudopotential:

                   l      r(l)      h(i,j,l)

                   0    0.302576    9.622487
                   1    0.291507

  2. Atomic kind: O                                     Number of atoms:      32

     Orbital Basis Set                                     DZVP-MOLOPT-SR-GTH-q6

       Number of orbital shell sets:                                           1
       Number of orbital shells:                                               5
       Number of primitive Cartesian functions:                                5
       Number of Cartesian basis functions:                                   14
       Number of spherical basis functions:                                   13
       Norm type:                                                              2

       Normalised Cartesian orbitals:

                        Set   Shell   Orbital            Exponent    Coefficient

                          1       1    2s               10.389228       0.396646
                                                         3.849621       0.208811
                                                         1.388401      -0.301641
                                                         0.496955      -0.274061
                                                         0.162492      -0.033677

                          1       2    3s               10.389228       0.303673
                                                         3.849621       0.240943
                                                         1.388401      -0.313066
                                                         0.496955      -0.043055
                                                         0.162492       0.213991

                          1       3    3px              10.389228      -1.530415
                                                         3.849621      -1.371928
                                                         1.388401      -0.761951
                                                         0.496955      -0.253695
                                                         0.162492      -0.035541
                          1       3    3py              10.389228      -1.530415
                                                         3.849621      -1.371928
                                                         1.388401      -0.761951
                                                         0.496955      -0.253695
                                                         0.162492      -0.035541
                          1       3    3pz              10.389228      -1.530415
                                                         3.849621      -1.371928
                                                         1.388401      -0.761951
                                                         0.496955      -0.253695
                                                         0.162492      -0.035541

                          1       4    4px              10.389228      -0.565392
                                                         3.849621      -0.038231
                                                         1.388401      -0.382373
                                                         0.496955       0.179070
                                                         0.162492       0.122714
                          1       4    4py              10.389228      -0.565392
                                                         3.849621      -0.038231
                                                         1.388401      -0.382373
                                                         0.496955       0.179070
                                                         0.162492       0.122714
                          1       4    4pz              10.389228      -0.565392
                                                         3.849621      -0.038231
                                                         1.388401      -0.382373
                                                         0.496955       0.179070
                                                         0.162492       0.122714

                          1       5    4dx2             10.389228       1.867377
                                                         3.849621       0.670994
                                                         1.388401       1.353441
                                                         0.496955       0.273538
                                                         0.162492       0.006620
                          1       5    4dxy             10.389228       3.234392
                                                         3.849621       1.162195
                                                         1.388401       2.344229
                                                         0.496955       0.473781
                                                         0.162492       0.011466
                          1       5    4dxz             10.389228       3.234392
                                                         3.849621       1.162195
                                                         1.388401       2.344229
                                                         0.496955       0.473781
                                                         0.162492       0.011466
                          1       5    4dy2             10.389228       1.867377
                                                         3.849621       0.670994
                                                         1.388401       1.353441
                                                         0.496955       0.273538
                                                         0.162492       0.006620
                          1       5    4dyz             10.389228       3.234392
                                                         3.849621       1.162195
                                                         1.388401       2.344229
                                                         0.496955       0.473781
                                                         0.162492       0.011466
                          1       5    4dz2             10.389228       1.867377
                                                         3.849621       0.670994
                                                         1.388401       1.353441
                                                         0.496955       0.273538
                                                         0.162492       0.006620

     GTH Potential information for                                    GTH-PBE-q6

       Description:                       Goedecker-Teter-Hutter pseudopotential
                                           Goedecker et al., PRB 54, 1703 (1996)
                                          Hartwigsen et al., PRB 58, 3641 (1998)
                                                      Krack, TCA 114, 145 (2005)

       Gaussian exponent of the core charge distribution:               8.360253
       Electronic configuration (s p d ...):                               2   4

       Parameters of the local part of the GTH pseudopotential:

                          rloc        C1          C2          C3          C4
                        0.244554  -16.667215    2.487311

       Parameters of the non-local part of the GTH pseudopotential:

                   l      r(l)      h(i,j,l)

                   0    0.220956   18.337458
                   1    0.211332

  3. Atomic kind: H                                     Number of atoms:      64

     Orbital Basis Set                                     DZVP-MOLOPT-SR-GTH-q1

       Number of orbital shell sets:                                           1
       Number of orbital shells:                                               3
       Number of primitive Cartesian functions:                                5
       Number of Cartesian basis functions:                                    5
       Number of spherical basis functions:                                    5
       Norm type:                                                              2

       Normalised Cartesian orbitals:

                        Set   Shell   Orbital            Exponent    Coefficient

                          1       1    2s               10.068468      -0.133023
                                                         2.680223      -0.177618
                                                         0.791502      -0.258419
                                                         0.239116      -0.107525
                                                         0.082193      -0.014019

                          1       2    3s               10.068468       0.344673
                                                         2.680223       1.819821
                                                         0.791502      -0.999069
                                                         0.239116       0.017430
                                                         0.082193       0.082660

                          1       3    3px              10.068468       0.155326
                                                         2.680223       0.367157
                                                         0.791502       0.311480
                                                         0.239116       0.080105
                                                         0.082193       0.033440
                          1       3    3py              10.068468       0.155326
                                                         2.680223       0.367157
                                                         0.791502       0.311480
                                                         0.239116       0.080105
                                                         0.082193       0.033440
                          1       3    3pz              10.068468       0.155326
                                                         2.680223       0.367157
                                                         0.791502       0.311480
                                                         0.239116       0.080105
                                                         0.082193       0.033440

     GTH Potential information for                                    GTH-PBE-q1

       Description:                       Goedecker-Teter-Hutter pseudopotential
                                           Goedecker et al., PRB 54, 1703 (1996)
                                          Hartwigsen et al., PRB 58, 3641 (1998)
                                                      Krack, TCA 114, 145 (2005)

       Gaussian exponent of the core charge distribution:              12.500000
       Electronic configuration (s p d ...):                                   1

       Parameters of the local part of the GTH pseudopotential:

                          rloc        C1          C2          C3          C4
                        0.200000   -4.178900    0.724463

  4. Atomic kind: N                                     Number of atoms:      24

     Orbital Basis Set                                     DZVP-MOLOPT-SR-GTH-q5

       Number of orbital shell sets:                                           1
       Number of orbital shells:                                               5
       Number of primitive Cartesian functions:                                5
       Number of Cartesian basis functions:                                   14
       Number of spherical basis functions:                                   13
       Norm type:                                                              2

       Normalised Cartesian orbitals:

                        Set   Shell   Orbital            Exponent    Coefficient

                          1       1    2s                7.341988       0.360561
                                                         2.542637       0.139177
                                                         0.888575      -0.289383
                                                         0.333802      -0.182244
                                                         0.112012      -0.019197

                          1       2    3s                7.341988       0.282000
                                                         2.542637       0.177875
                                                         0.888575      -0.278381
                                                         0.333802       0.008577
                                                         0.112012       0.154176

                          1       3    3px               7.341988      -1.188719
                                                         2.542637      -0.973969
                                                         0.888575      -0.501079
                                                         0.333802      -0.144894
                                                         0.112012      -0.013986
                          1       3    3py               7.341988      -1.188719
                                                         2.542637      -0.973969
                                                         0.888575      -0.501079
                                                         0.333802      -0.144894
                                                         0.112012      -0.013986
                          1       3    3pz               7.341988      -1.188719
                                                         2.542637      -0.973969
                                                         0.888575      -0.501079
                                                         0.333802      -0.144894
                                                         0.112012      -0.013986

                          1       4    4px               7.341988      -0.094798
                                                         2.542637       0.050069
                                                         0.888575      -0.114797
                                                         0.333802       0.144793
                                                         0.112012       0.066710
                          1       4    4py               7.341988      -0.094798
                                                         2.542637       0.050069
                                                         0.888575      -0.114797
                                                         0.333802       0.144793
                                                         0.112012       0.066710
                          1       4    4pz               7.341988      -0.094798
                                                         2.542637       0.050069
                                                         0.888575      -0.114797
                                                         0.333802       0.144793
                                                         0.112012       0.066710

                          1       5    4dx2              7.341988       1.354688
                                                         2.542637       0.690378
                                                         0.888575       0.855359
                                                         0.333802       0.091746
                                                         0.112012       0.001253
                          1       5    4dxy              7.341988       2.346389
                                                         2.542637       1.195770
                                                         0.888575       1.481524
                                                         0.333802       0.158910
                                                         0.112012       0.002169
                          1       5    4dxz              7.341988       2.346389
                                                         2.542637       1.195770
                                                         0.888575       1.481524
                                                         0.333802       0.158910
                                                         0.112012       0.002169
                          1       5    4dy2              7.341988       1.354688
                                                         2.542637       0.690378
                                                         0.888575       0.855359
                                                         0.333802       0.091746
                                                         0.112012       0.001253
                          1       5    4dyz              7.341988       2.346389
                                                         2.542637       1.195770
                                                         0.888575       1.481524
                                                         0.333802       0.158910
                                                         0.112012       0.002169
                          1       5    4dz2              7.341988       1.354688
                                                         2.542637       0.690378
                                                         0.888575       0.855359
                                                         0.333802       0.091746
                                                         0.112012       0.001253

     GTH Potential information for                                    GTH-PBE-q5

       Description:                       Goedecker-Teter-Hutter pseudopotential
                                           Goedecker et al., PRB 54, 1703 (1996)
                                          Hartwigsen et al., PRB 58, 3641 (1998)
                                                      Krack, TCA 114, 145 (2005)

       Gaussian exponent of the core charge distribution:               6.208322
       Electronic configuration (s p d ...):                               2   3

       Parameters of the local part of the GTH pseudopotential:

                          rloc        C1          C2          C3          C4
                        0.283791  -12.415226    1.868096

       Parameters of the non-local part of the GTH pseudopotential:

                   l      r(l)      h(i,j,l)

                   0    0.255405   13.630263
                   1    0.245495

  5. Atomic kind: B                                     Number of atoms:       8

     Orbital Basis Set                                     DZVP-MOLOPT-SR-GTH-q3

       Number of orbital shell sets:                                           1
       Number of orbital shells:                                               5
       Number of primitive Cartesian functions:                                4
       Number of Cartesian basis functions:                                   14
       Number of spherical basis functions:                                   13
       Norm type:                                                              2

       Normalised Cartesian orbitals:

                        Set   Shell   Orbital            Exponent    Coefficient

                          1       1    2s                3.053444       0.252402
                                                         0.915484       0.050494
                                                         0.329920      -0.219689
                                                         0.101655      -0.057697

                          1       2    3s                3.053444      -0.889751
                                                         0.915484      -0.125118
                                                         0.329920       0.537314
                                                         0.101655      -0.211019

                          1       3    3px               3.053444      -0.570049
                                                         0.915484      -0.388730
                                                         0.329920      -0.182602
                                                         0.101655      -0.024010
                          1       3    3py               3.053444      -0.570049
                                                         0.915484      -0.388730
                                                         0.329920      -0.182602
                                                         0.101655      -0.024010
                          1       3    3pz               3.053444      -0.570049
                                                         0.915484      -0.388730
                                                         0.329920      -0.182602
                                                         0.101655      -0.024010

                          1       4    4px               3.053444      -0.595374
                                                         0.915484      -0.502823
                                                         0.329920      -0.128778
                                                         0.101655       0.089873
                          1       4    4py               3.053444      -0.595374
                                                         0.915484      -0.502823
                                                         0.329920      -0.128778
                                                         0.101655       0.089873
                          1       4    4pz               3.053444      -0.595374
                                                         0.915484      -0.502823
                                                         0.329920      -0.128778
                                                         0.101655       0.089873

                          1       5    4dx2              3.053444      -0.371712
                                                         0.915484      -0.428539
                                                         0.329920      -0.123001
                                                         0.101655      -0.011638
                          1       5    4dxy              3.053444      -0.643825
                                                         0.915484      -0.742250
                                                         0.329920      -0.213044
                                                         0.101655      -0.020158
                          1       5    4dxz              3.053444      -0.643825
                                                         0.915484      -0.742250
                                                         0.329920      -0.213044
                                                         0.101655      -0.020158
                          1       5    4dy2              3.053444      -0.371712
                                                         0.915484      -0.428539
                                                         0.329920      -0.123001
                                                         0.101655      -0.011638
                          1       5    4dyz              3.053444      -0.643825
                                                         0.915484      -0.742250
                                                         0.329920      -0.213044
                                                         0.101655      -0.020158
                          1       5    4dz2              3.053444      -0.371712
                                                         0.915484      -0.428539
                                                         0.329920      -0.123001
                                                         0.101655      -0.011638

     GTH Potential information for                                    GTH-PBE-q3

       Description:                       Goedecker-Teter-Hutter pseudopotential
                                           Goedecker et al., PRB 54, 1703 (1996)
                                          Hartwigsen et al., PRB 58, 3641 (1998)
                                                      Krack, TCA 114, 145 (2005)

       Gaussian exponent of the core charge distribution:               2.848129
       Electronic configuration (s p d ...):                               2   1

       Parameters of the local part of the GTH pseudopotential:

                          rloc        C1          C2          C3          C4
                        0.418991   -5.859462    0.903756

       Parameters of the non-local part of the GTH pseudopotential:

                   l      r(l)      h(i,j,l)

                   0    0.371320    6.297280
                   1    0.364563

  6. Atomic kind: Cu                                    Number of atoms:       2

     Orbital Basis Set                                    DZVP-MOLOPT-SR-GTH-q11

       Number of orbital shell sets:                                           1
       Number of orbital shells:                                               7
       Number of primitive Cartesian functions:                                6
       Number of Cartesian basis functions:                                   30
       Number of spherical basis functions:                                   25
       Norm type:                                                              2

       Normalised Cartesian orbitals:

                        Set   Shell   Orbital            Exponent    Coefficient

                          1       1    2s                5.804051       0.045596
                                                         2.947778      -0.139279
                                                         1.271621       0.214572
                                                         0.517174       0.085605
                                                         0.198007      -0.138200
                                                         0.061684      -0.053295

                          1       2    3s                5.804051       0.130403
                                                         2.947778      -0.161341
                                                         1.271621      -0.101039
                                                         0.517174      -0.345250
                                                         0.198007       0.499925
                                                         0.061684      -0.162382

                          1       3    3px               5.804051      -0.066551
                                                         2.947778       0.111915
                                                         1.271621      -0.204459
                                                         0.517174       0.040237
                                                         0.198007       0.099394
                                                         0.061684       0.024283
                          1       3    3py               5.804051      -0.066551
                                                         2.947778       0.111915
                                                         1.271621      -0.204459
                                                         0.517174       0.040237
                                                         0.198007       0.099394
                                                         0.061684       0.024283
                          1       3    3pz               5.804051      -0.066551
                                                         2.947778       0.111915
                                                         1.271621      -0.204459
                                                         0.517174       0.040237
                                                         0.198007       0.099394
                                                         0.061684       0.024283

                          1       4    4px               5.804051      -0.329266
                                                         2.947778       0.140173
                                                         1.271621       0.545791
                                                         0.517174       0.280404
                                                         0.198007      -0.321326
                                                         0.061684       0.055470
                          1       4    4py               5.804051      -0.329266
                                                         2.947778       0.140173
                                                         1.271621       0.545791
                                                         0.517174       0.280404
                                                         0.198007      -0.321326
                                                         0.061684       0.055470
                          1       4    4pz               5.804051      -0.329266
                                                         2.947778       0.140173
                                                         1.271621       0.545791
                                                         0.517174       0.280404
                                                         0.198007      -0.321326
                                                         0.061684       0.055470

                          1       5    4dx2              5.804051       9.381621
                                                         2.947778       3.660256
                                                         1.271621       0.792510
                                                         0.517174       0.128389
                                                         0.198007       0.013938
                                                         0.061684       0.000367
                          1       5    4dxy              5.804051      16.249444
                                                         2.947778       6.339749
                                                         1.271621       1.372667
                                                         0.517174       0.222377
                                                         0.198007       0.024141
                                                         0.061684       0.000636
                          1       5    4dxz              5.804051      16.249444
                                                         2.947778       6.339749
                                                         1.271621       1.372667
                                                         0.517174       0.222377
                                                         0.198007       0.024141
                                                         0.061684       0.000636
                          1       5    4dy2              5.804051       9.381621
                                                         2.947778       3.660256
                                                         1.271621       0.792510
                                                         0.517174       0.128389
                                                         0.198007       0.013938
                                                         0.061684       0.000367
                          1       5    4dyz              5.804051      16.249444
                                                         2.947778       6.339749
                                                         1.271621       1.372667
                                                         0.517174       0.222377
                                                         0.198007       0.024141
                                                         0.061684       0.000636
                          1       5    4dz2              5.804051       9.381621
                                                         2.947778       3.660256
                                                         1.271621       0.792510
                                                         0.517174       0.128389
                                                         0.198007       0.013938
                                                         0.061684       0.000367

                          1       6    5dx2              5.804051      -3.189865
                                                         2.947778      -1.988097
                                                         1.271621      -0.492759
                                                         0.517174       0.080183
                                                         0.198007       0.017863
                                                         0.061684       0.009947
                          1       6    5dxy              5.804051      -5.525009
                                                         2.947778      -3.443486
                                                         1.271621      -0.853484
                                                         0.517174       0.138882
                                                         0.198007       0.030940
                                                         0.061684       0.017228
                          1       6    5dxz              5.804051      -5.525009
                                                         2.947778      -3.443486
                                                         1.271621      -0.853484
                                                         0.517174       0.138882
                                                         0.198007       0.030940
                                                         0.061684       0.017228
                          1       6    5dy2              5.804051      -3.189865
                                                         2.947778      -1.988097
                                                         1.271621      -0.492759
                                                         0.517174       0.080183
                                                         0.198007       0.017863
                                                         0.061684       0.009947
                          1       6    5dyz              5.804051      -5.525009
                                                         2.947778      -3.443486
                                                         1.271621      -0.853484
                                                         0.517174       0.138882
                                                         0.198007       0.030940
                                                         0.061684       0.017228
                          1       6    5dz2              5.804051      -3.189865
                                                         2.947778      -1.988097
                                                         1.271621      -0.492759
                                                         0.517174       0.080183
                                                         0.198007       0.017863
                                                         0.061684       0.009947

                          1       7    5fx3              5.804051      -1.183361
                                                         2.947778       0.859927
                                                         1.271621      -0.674185
                                                         0.517174      -0.156063
                                                         0.198007      -0.018231
                                                         0.061684       0.001772
                          1       7    5fx2y             5.804051      -2.646075
                                                         2.947778       1.922855
                                                         1.271621      -1.507524
                                                         0.517174      -0.348968
                                                         0.198007      -0.040766
                                                         0.061684       0.003961
                          1       7    5fx2z             5.804051      -2.646075
                                                         2.947778       1.922855
                                                         1.271621      -1.507524
                                                         0.517174      -0.348968
                                                         0.198007      -0.040766
                                                         0.061684       0.003961
                          1       7    5fxy2             5.804051      -2.646075
                                                         2.947778       1.922855
                                                         1.271621      -1.507524
                                                         0.517174      -0.348968
                                                         0.198007      -0.040766
                                                         0.061684       0.003961
                          1       7    5fxyz             5.804051      -4.583137
                                                         2.947778       3.330483
                                                         1.271621      -2.611108
                                                         0.517174      -0.604431
                                                         0.198007      -0.070608
                                                         0.061684       0.006861
                          1       7    5fxz2             5.804051      -2.646075
                                                         2.947778       1.922855
                                                         1.271621      -1.507524
                                                         0.517174      -0.348968
                                                         0.198007      -0.040766
                                                         0.061684       0.003961
                          1       7    5fy3              5.804051      -1.183361
                                                         2.947778       0.859927
                                                         1.271621      -0.674185
                                                         0.517174      -0.156063
                                                         0.198007      -0.018231
                                                         0.061684       0.001772
                          1       7    5fy2z             5.804051      -2.646075
                                                         2.947778       1.922855
                                                         1.271621      -1.507524
                                                         0.517174      -0.348968
                                                         0.198007      -0.040766
                                                         0.061684       0.003961
                          1       7    5fyz2             5.804051      -2.646075
                                                         2.947778       1.922855
                                                         1.271621      -1.507524
                                                         0.517174      -0.348968
                                                         0.198007      -0.040766
                                                         0.061684       0.003961
                          1       7    5fz3              5.804051      -1.183361
                                                         2.947778       0.859927
                                                         1.271621      -0.674185
                                                         0.517174      -0.156063
                                                         0.198007      -0.018231
                                                         0.061684       0.001772

     GTH Potential information for                                   GTH-PBE-q11

       Description:                       Goedecker-Teter-Hutter pseudopotential
                                           Goedecker et al., PRB 54, 1703 (1996)
                                          Hartwigsen et al., PRB 58, 3641 (1998)
                                                      Krack, TCA 114, 145 (2005)

       Gaussian exponent of the core charge distribution:               1.779993
       Electronic configuration (s p d ...):                           1   0  10

       Parameters of the local part of the GTH pseudopotential:

                          rloc        C1          C2          C3          C4
                        0.530000

       Parameters of the non-local part of the GTH pseudopotential:

                   l      r(l)      h(i,j,l)

                   0    0.431355    9.693805   -6.470165    1.935952
                                   -6.470165   11.501774   -4.998607
                                    1.935952   -4.998607    3.967521
                   1    0.561392    2.545473   -0.784636
                                   -0.784636    0.928394
                   2    0.264555  -12.828614


 MOLECULE KIND INFORMATION


 All atoms are their own molecule, skipping detailed information


 TOTAL NUMBERS AND MAXIMUM NUMBERS

  Total number of            - Atomic kinds:                                   6
                             - Atoms:                                        298
                             - Shell sets:                                   298
                             - Shells:                                      1366
                             - Primitive Cartesian functions:               1484
                             - Cartesian basis functions:                   3628
                             - Spherical basis functions:                   3386

  Maximum angular momentum of- Orbital basis functions:                        3
                             - Local part of the GTH pseudopotential:          2
                             - Non-local part of the GTH pseudopotential:      4


 MODULE QUICKSTEP:  ATOMIC COORDINATES IN angstrom

  Atom  Kind  Element       X           Y           Z          Z(eff)       Mass

       1     1 C    6   15.024592   26.280999    4.598164      4.00      12.0107
       2     1 C    6   17.187193   25.113055    4.534963      4.00      12.0107
       3     1 C    6   16.424269   23.938881    4.533835      4.00      12.0107
       4     1 C    6   16.840118   22.549763    4.500724      4.00      12.0107
       5     2 O    8   16.897158   27.576661    4.568163      6.00      15.9994
       6     3 H    1   18.272670   25.104585    4.501420      1.00       1.0079
       7     1 C    6    9.235230   19.078373    4.761037      4.00      12.0107
       8     1 C    6   10.400048   21.237155    4.708682      4.00      12.0107
       9     1 C    6   11.573371   20.471108    4.655544      4.00      12.0107
      10     1 C    6   12.963958   20.885825    4.594838      4.00      12.0107
      11     2 O    8    7.929956   20.945850    4.822867      6.00      15.9994
      12     3 H    1   10.415123   22.323317    4.723596      1.00       1.0079
      13     4 N    7   18.116060   22.188698    4.466795      5.00      14.0067
      14     1 C    6   16.537288   13.285768    4.694052      4.00      12.0107
      15     1 C    6   14.338742   14.404207    4.692590      4.00      12.0107
      16     1 C    6   15.062239   15.605654    4.638766      4.00      12.0107
      17     1 C    6   14.628125   16.998354    4.583424      4.00      12.0107
      18     2 O    8   14.703978   11.946859    4.751015      6.00      15.9994
      19     3 H    1   13.251828   14.374661    4.696485      1.00       1.0079
      20     1 C    6   22.232529   20.519350    4.394069      4.00      12.0107
      21     1 C    6   21.080877   18.346037    4.463400      4.00      12.0107
      22     1 C    6   19.898698   19.099161    4.473499      4.00      12.0107
      23     1 C    6   18.507017   18.679665    4.502332      4.00      12.0107
      24     2 O    8   23.544924   18.660061    4.390167      6.00      15.9994
      25     3 H    1   21.079012   17.260375    4.475908      1.00       1.0079
      26     4 N    7   13.352319   17.365895    4.600349      5.00      14.0067
      27     1 C    6   16.436573   26.275028    4.568756      4.00      12.0107
      28     1 C    6   14.260871   25.123783    4.602518      4.00      12.0107
      29     1 C    6   15.009683   23.940182    4.567824      4.00      12.0107
      30     1 C    6   14.598746   22.543446    4.556426      4.00      12.0107
      31     2 O    8   14.582995   27.588522    4.607760      6.00      15.9994
      32     3 H    1   13.175065   25.130947    4.636663      1.00       1.0079
      33     1 C    6   22.236795   19.105191    4.415852      4.00      12.0107
      34     1 C    6   21.070141   21.274154    4.416701      4.00      12.0107
      35     1 C    6   19.891827   20.514520    4.452042      4.00      12.0107
      36     1 C    6   18.495554   20.919493    4.463886      4.00      12.0107
      37     2 O    8   23.531626   20.973364    4.346251      6.00      15.9994
      38     3 H    1   21.066049   22.360220    4.402670      1.00       1.0079
      39     4 N    7   13.329105   22.163918    4.593301      5.00      14.0067
      40     1 C    6   15.125296   13.261206    4.720735      4.00      12.0107
      41     1 C    6   17.263022   14.464084    4.653987      4.00      12.0107
      42     1 C    6   16.478507   15.626802    4.627408      4.00      12.0107
      43     1 C    6   16.872902   17.023734    4.568950      4.00      12.0107
      44     2 O    8   17.015300   11.987539    4.705957      6.00      15.9994
      45     3 H    1   18.347941   14.498328    4.629388      1.00       1.0079
      46     1 C    6    9.234283   20.491324    4.766126      4.00      12.0107
      47     1 C    6   10.387242   18.309779    4.701284      4.00      12.0107
      48     1 C    6   11.573807   19.053049    4.649357      4.00      12.0107
      49     1 C    6   12.969726   18.638975    4.593212      4.00      12.0107
      50     2 O    8    7.932652   18.631898    4.821292      6.00      15.9994
      51     3 H    1   10.375657   17.223987    4.701327      1.00       1.0079
      52     4 N    7   18.144423   17.403365    4.546866      5.00      14.0067
      53     5 B    5   15.746370   28.383301    4.582056      3.00      10.8110
      54     4 N    7   15.722080   21.739850    4.518710      5.00      14.0067
      55     5 B    5   15.876104   11.163316    4.731236      3.00      10.8110
      56     4 N    7   15.743579   17.817259    4.531176      5.00      14.0067
      57     5 B    5    7.130762   19.789745    4.875247      3.00      10.8110
      58     4 N    7   13.772288   19.766320    4.554633      5.00      14.0067
      59     5 B    5   24.338636   19.821975    4.369761      3.00      10.8110
      60     4 N    7   17.694052   19.793918    4.483894      5.00      14.0067
      61     1 C    6   -1.476446   19.671252    4.696309      4.00      12.0107
      62     1 C    6   -1.381939   21.496971    3.095517      4.00      12.0107
      63     1 C    6   -1.595823   17.832362    6.279334      4.00      12.0107
      64     1 C    6   -0.730474   20.546157    3.873943      4.00      12.0107
      65     1 C    6    0.742976   20.457546    3.828013      4.00      12.0107
      66     1 C    6   -0.837681   18.671155    5.463530      4.00      12.0107
      67     1 C    6    0.638106   18.527707    5.434618      4.00      12.0107
      68     1 C    6    2.798479   19.562939    4.799347      4.00      12.0107
      69     1 C    6    3.414119   20.805206    5.018874      4.00      12.0107
      70     1 C    6    4.803527   20.889422    5.051290      4.00      12.0107
      71     1 C    6    3.566643   18.403646    4.673095      4.00      12.0107
      72     1 C    6    4.955216   18.497522    4.745167      4.00      12.0107
      73     1 C    6    5.599229   19.737275    4.909140      4.00      12.0107
      74     2 O    8    1.412070   21.154865    3.066421      6.00      15.9994
      75     2 O    8    1.216830   17.625668    6.032949      6.00      15.9994
      76     4 N    7    1.357420   19.517061    4.700331      5.00      14.0067
      77     3 H    1   -0.780200   22.148996    2.467856      1.00       1.0079
      78     3 H    1    2.804820   21.694779    5.146062      1.00       1.0079
      79     3 H    1    5.277354   21.859066    5.194710      1.00       1.0079
      80     3 H    1   -1.080225   17.075784    6.868061      1.00       1.0079
      81     3 H    1    3.087971   17.449148    4.491109      1.00       1.0079
      82     3 H    1    5.551750   17.594809    4.636521      1.00       1.0079
      83     1 C    6   32.948167   19.785957    4.735251      4.00      12.0107
      84     1 C    6   32.852701   17.970436    6.345685      4.00      12.0107
      85     1 C    6   33.062186   21.596178    3.116730      4.00      12.0107
      86     1 C    6   32.198750   18.931515    5.575133      4.00      12.0107
      87     1 C    6   30.725229   19.056995    5.645625      4.00      12.0107
      88     1 C    6   32.307462   20.758322    3.931698      4.00      12.0107
      89     1 C    6   30.835788   20.863391    3.904106      4.00      12.0107
      90     1 C    6   28.669208   19.918690    4.604580      4.00      12.0107
      91     1 C    6   28.018386   18.684908    4.464811      4.00      12.0107
      92     1 C    6   26.630133   18.652530    4.370308      4.00      12.0107
      93     1 C    6   27.936392   21.106828    4.613734      4.00      12.0107
      94     1 C    6   26.547101   21.062220    4.526487      4.00      12.0107
      95     1 C    6   25.869119   19.836947    4.407151      4.00      12.0107
      96     2 O    8   30.053582   18.439862    6.466292      6.00      15.9994
      97     2 O    8   30.267787   21.697144    3.199125      6.00      15.9994
      98     4 N    7   30.111838   19.945545    4.708701      5.00      14.0067
      99     3 H    1   32.258104   17.332390    6.996783      1.00       1.0079
     100     3 H    1   28.599660   17.771114    4.408352      1.00       1.0079
     101     3 H    1   26.128343   17.693933    4.253080      1.00       1.0079
     102     3 H    1   32.538531   22.318447    2.493625      1.00       1.0079
     103     3 H    1   28.442173   22.059855    4.677566      1.00       1.0079
     104     3 H    1   25.984133   21.992450    4.574213      1.00       1.0079
     105     1 C    6   16.064315    2.555703    4.996131      4.00      12.0107
     106     1 C    6   13.993674    2.390911    3.736571      4.00      12.0107
     107     1 C    6   18.120032    2.697362    6.278316      4.00      12.0107
     108     1 C    6   14.918230    3.163559    4.436725      4.00      12.0107
     109     1 C    6   14.703561    4.621047    4.545399      4.00      12.0107
     110     1 C    6   16.992780    3.315024    5.739129      4.00      12.0107
     111     1 C    6   16.777678    4.765256    5.935871      4.00      12.0107
     112     1 C    6   15.758128    6.820212    5.022962      4.00      12.0107
     113     1 C    6   14.571590    7.569305    5.061107      4.00      12.0107
     114     1 C    6   14.636314    8.957043    4.920172      4.00      12.0107
     115     1 C    6   16.995973    7.459803    4.822624      4.00      12.0107
     116     1 C    6   17.048106    8.849300    4.721024      4.00      12.0107
     117     1 C    6   15.869047    9.625131    4.771638      4.00      12.0107
     118     2 O    8   13.681882    5.138695    4.103403      6.00      15.9994
     119     2 O    8   17.438669    5.418673    6.730988      6.00      15.9994
     120     4 N    7   15.743967    5.377907    5.149836      5.00      14.0067
     121     3 H    1   13.108670    2.880033    3.335324      1.00       1.0079
     122     3 H    1   13.606579    7.092706    5.202236      1.00       1.0079
     123     3 H    1   13.710345    9.530918    4.958775      1.00       1.0079
     124     3 H    1   18.831022    3.305650    6.832700      1.00       1.0079
     125     3 H    1   17.912882    6.876928    4.762524      1.00       1.0079
     126     3 H    1   18.019056    9.332680    4.596139      1.00       1.0079
     127     1 C    6   15.330529   36.967857    4.821906      4.00      12.0107
     128     1 C    6   17.379590   37.127427    6.112700      4.00      12.0107
     129     1 C    6   13.269826   36.829106    3.538826      4.00      12.0107
     130     1 C    6   16.467477   36.353462    5.397221      4.00      12.0107
     131     1 C    6   16.657448   34.885130    5.307372      4.00      12.0107
     132     1 C    6   14.403765   36.215515    4.065088      4.00      12.0107
     133     1 C    6   14.641511   34.781581    3.801479      4.00      12.0107
     134     1 C    6   15.740085   32.720458    4.519397      4.00      12.0107
     135     1 C    6   16.946006   32.032587    4.372593      4.00      12.0107
     136     1 C    6   16.945881   30.636606    4.395000      4.00      12.0107
     137     1 C    6   14.537611   32.016382    4.686264      4.00      12.0107
     138     1 C    6   14.550178   30.628247    4.692935      4.00      12.0107
     139     1 C    6   15.752982   29.912692    4.560350      4.00      12.0107
     140     2 O    8   17.574993   34.305038    5.880553      6.00      15.9994
     141     2 O    8   13.971694   34.150869    2.990283      6.00      15.9994
     142     4 N    7   15.689278   34.163928    4.542733      5.00      14.0067
     143     3 H    1   18.245211   36.631846    6.546929      1.00       1.0079
     144     3 H    1   17.873980   32.571500    4.233941      1.00       1.0079
     145     3 H    1   17.885421   30.102925    4.272986      1.00       1.0079
     146     3 H    1   12.564661   36.219846    2.977314      1.00       1.0079
     147     3 H    1   13.605653   32.554159    4.816902      1.00       1.0079
     148     3 H    1   13.614072   30.090914    4.828720      1.00       1.0079
     149     6 Cu  29   16.203762   18.382176    1.263439     11.00      63.5460
     150     1 C    6   15.515942   24.897901    1.198189      4.00      12.0107
     151     1 C    6   17.682191   23.729582    1.214597      4.00      12.0107
     152     1 C    6   16.923191   22.549983    1.208348      4.00      12.0107
     153     1 C    6   17.330522   21.152612    1.230543      4.00      12.0107
     154     2 O    8   17.383998   26.195756    1.234304      6.00      15.9994
     155     3 H    1   18.768879   23.717147    1.236942      1.00       1.0079
     156     1 C    6    9.699375   17.717053    1.515451      4.00      12.0107
     157     1 C    6   10.868922   19.877215    1.391839      4.00      12.0107
     158     1 C    6   12.044934   19.112973    1.362447      4.00      12.0107
     159     1 C    6   13.439280   19.520114    1.299248      4.00      12.0107
     160     2 O    8    8.401945   19.588240    1.507591      6.00      15.9994
     161     3 H    1   10.878737   20.963176    1.371040      1.00       1.0079
     162     4 N    7   18.600985   20.773465    1.219551      5.00      14.0067
     163     1 C    6   16.877088   11.882446    1.326053      4.00      12.0107
     164     1 C    6   14.718701   13.057848    1.379602      4.00      12.0107
     165     1 C    6   15.481680   14.232807    1.322464      4.00      12.0107
     166     1 C    6   15.075756   15.628279    1.323184      4.00      12.0107
     167     2 O    8   15.010000   10.585914    1.443996      6.00      15.9994
     168     3 H    1   13.633746   13.072683    1.423384      1.00       1.0079
     169     1 C    6   22.696902   19.102859    1.104352      4.00      12.0107
     170     1 C    6   21.559217   16.924132    1.109164      4.00      12.0107
     171     1 C    6   20.370105   17.669446    1.147236      4.00      12.0107
     172     1 C    6   18.974017   17.252881    1.183708      4.00      12.0107
     173     2 O    8   24.029495   17.259443    1.053781      6.00      15.9994
     174     3 H    1   21.565626   15.838153    1.079951      1.00       1.0079
     175     4 N    7   13.804682   16.006557    1.375138      5.00      14.0067
     176     1 C    6   16.929055   24.892512    1.209910      4.00      12.0107
     177     1 C    6   14.757276   23.739061    1.188103      4.00      12.0107
     178     1 C    6   15.507789   22.554243    1.195257      4.00      12.0107
     179     1 C    6   15.087962   21.160587    1.221293      4.00      12.0107
     180     2 O    8   15.068528   26.206764    1.214674      6.00      15.9994
     181     3 H    1   13.671740   23.740872    1.192890      1.00       1.0079
     182     1 C    6   22.716084   17.689850    1.085872      4.00      12.0107
     183     1 C    6   21.533873   19.850774    1.144436      4.00      12.0107
     184     1 C    6   20.361813   19.086956    1.167630      4.00      12.0107
     185     1 C    6   18.969401   19.497882    1.208091      4.00      12.0107
     186     2 O    8   23.990707   19.573981    1.072960      6.00      15.9994
     187     3 H    1   21.522318   20.936275    1.153715      1.00       1.0079
     188     4 N    7   13.812877   20.794374    1.244287      5.00      14.0067
     189     1 C    6   15.466417   11.890718    1.383841      4.00      12.0107
     190     1 C    6   17.640272   13.036831    1.262912      4.00      12.0107
     191     1 C    6   16.895705   14.222746    1.266716      4.00      12.0107
     192     1 C    6   17.319278   15.614691    1.235854      4.00      12.0107
     193     2 O    8   17.323065   10.577984    1.346070      6.00      15.9994
     194     3 H    1   18.724659   13.024758    1.212895      1.00       1.0079
     195     1 C    6    9.706070   19.130677    1.468556      4.00      12.0107
     196     1 C    6   10.855325   16.950679    1.482023      4.00      12.0107
     197     1 C    6   12.040608   17.697225    1.404068      4.00      12.0107
     198     1 C    6   13.434010   17.279238    1.364233      4.00      12.0107
     199     2 O    8    8.397378   17.276705    1.595884      6.00      15.9994
     200     3 H    1   10.849959   15.864913    1.522115      1.00       1.0079
[...]
      -0.09120585      -0.09115354      -0.07582838      -0.07574286
      -0.07339930      -0.07336583      -0.06639820      -0.06625464
 Fermi Energy [eV] :   -2.068381
  
  Lowest eigenvalues of the unoccupied subspace spin            1
 ---------------------------------------------
      -0.04403564
  
  Lowest eigenvalues of the unoccupied subspace spin            2
 ---------------------------------------------
      -0.04403564

 ENERGY| Total FORCE_EVAL ( QS ) energy (a.u.):            -1865.543989573482577


 --------  Informations at step =     2 ------------
  Optimization Method        =                LBFGS
  Total Energy               =     -1865.5439895735
  Internal Pressure [bar]    =       -37.4764793091
  Real energy change         =        -0.0000816105
  Decrease in energy         =                  YES
  Used time                  =              158.028

  Convergence check :
  Max. step size             =         0.0034598223
  Conv. limit for step size  =         0.0300000000
  Convergence in step size   =                  YES
  RMS step size              =         0.0003789643
  Conv. limit for RMS step   =         0.0150000000
  Convergence in RMS step    =                  YES
  Max. gradient              =         0.0021590592
  Conv. limit for gradients  =         0.0010000000
  Conv. for gradients        =                   NO
  RMS gradient               =         0.0002985616
  Conv. limit for RMS grad.  =         0.0007000000
  Conv. in RMS gradients     =                  YES
  Pressure Deviation [bar]   =       -37.4764793091
  Pressure Tolerance [bar]   =       100.0000000000
  Conv. for  PRESSURE        =                  YES
 ---------------------------------------------------

 *** MAXIMUM NUMBER OF OPTIMIZATION STEPS REACHED ***
 ***        EXITING GEOMETRY OPTIMIZATION         ***

 -------------------------------------------------------------------------------
 -                                                                             -
 -                                DBCSR STATISTICS                             -
 -                                                                             -
 -------------------------------------------------------------------------------
 COUNTER                                    TOTAL       BLAS       SMM       ACC
 flops    25 x    10 x    25               150000     100.0%      0.0%      0.0%
 flops    25 x    12 x    25               180000     100.0%      0.0%      0.0%
 flops     5 x    10 x    25               720000     100.0%      0.0%      0.0%
 flops    25 x    10 x     5               720000     100.0%      0.0%      0.0%
 flops     5 x    12 x    25               864000     100.0%      0.0%      0.0%
 flops    25 x    12 x     5               864000     100.0%      0.0%      0.0%
 flops     5 x    10 x     5              2976000     100.0%      0.0%      0.0%
 flops     5 x    12 x     5              3571200     100.0%      0.0%      0.0%
 flops    13 x    10 x    25              6220500     100.0%      0.0%      0.0%
 flops    25 x    10 x    13              6220500     100.0%      0.0%      0.0%
 flops    13 x    12 x    25              7464600     100.0%      0.0%      0.0%
 flops    25 x    12 x    13              7464600     100.0%      0.0%      0.0%
 flops    25 x    25 x    42             20947500     100.0%      0.0%      0.0%
 flops    25 x    25 x    44             21945000     100.0%      0.0%      0.0%
 flops     5 x    10 x    13             26310700     100.0%      0.0%      0.0%
 flops    13 x    10 x     5             26310700     100.0%      0.0%      0.0%
 flops     5 x    12 x    13             31572840     100.0%      0.0%      0.0%
 flops    13 x    12 x     5             31572840     100.0%      0.0%      0.0%
 flops    25 x    32 x    25             46080000     100.0%      0.0%      0.0%
 flops    25 x     5 x    42             67032000     100.0%      0.0%      0.0%
 flops     5 x    25 x    42             67032000     100.0%      0.0%      0.0%
 flops    25 x     5 x    44             70224000     100.0%      0.0%      0.0%
 flops     5 x    25 x    44             70224000     100.0%      0.0%      0.0%
 flops    25 x    32 x     5            221184000     100.0%      0.0%      0.0%
 flops     5 x    32 x    25            221184000     100.0%      0.0%      0.0%
 flops    25 x    25 x    32            223440000     100.0%      0.0%      0.0%
 flops    13 x    10 x    13            235741480     100.0%      0.0%      0.0%
 flops    13 x    12 x    13            282889776     100.0%      0.0%      0.0%
 flops     5 x     5 x    42            286003200     100.0%      0.0%      0.0%
 flops     5 x     5 x    44            299622400     100.0%      0.0%      0.0%
 flops    25 x    13 x    42            577313100     100.0%      0.0%      0.0%
 flops    13 x    25 x    42            580944000     100.0%      0.0%      0.0%
 flops    25 x    13 x    44            604804200     100.0%      0.0%      0.0%
 flops    13 x    25 x    44            608608000     100.0%      0.0%      0.0%
 flops    25 x     5 x    32            715008000     100.0%      0.0%      0.0%
 flops     5 x    25 x    32            715008000     100.0%      0.0%      0.0%
 flops     5 x    32 x     5            914227200     100.0%      0.0%      0.0%
 flops    25 x    25 x    64           1276800000     100.0%      0.0%      0.0%
 flops    25 x    32 x    13           1910937600     100.0%      0.0%      0.0%
 flops    13 x    32 x    25           1910937600     100.0%      0.0%      0.0%
 flops     5 x    13 x    42           2438949240     100.0%      0.0%      0.0%
 flops    13 x     5 x    42           2460297840     100.0%      0.0%      0.0%
 flops     5 x    13 x    44           2555089680     100.0%      0.0%      0.0%
 flops    13 x     5 x    44           2577454880     100.0%      0.0%      0.0%
 flops     5 x     5 x    32           3050700800     100.0%      0.0%      0.0%
 flops    25 x     5 x    64           4085760000     100.0%      0.0%      0.0%
 flops     5 x    25 x    64           4085760000     100.0%      0.0%      0.0%
 flops    25 x    13 x    32           6158006400     100.0%      0.0%      0.0%
 flops    13 x    25 x    32           6196736000     100.0%      0.0%      0.0%
 flops     5 x    32 x    13           8082647040     100.0%      0.0%      0.0%
 flops    13 x    32 x     5           8082647040     100.0%      0.0%      0.0%
 flops     5 x     5 x    64          17432576000     100.0%      0.0%      0.0%
 flops    13 x    13 x    42          22167054000     100.0%      0.0%      0.0%
 flops    13 x    13 x    44          23222628000     100.0%      0.0%      0.0%
 flops     5 x    13 x    32          26015458560     100.0%      0.0%      0.0%
 flops    13 x     5 x    32          26243176960     100.0%      0.0%      0.0%
 flops    25 x    13 x    64          35188608000     100.0%      0.0%      0.0%
 flops    13 x    25 x    64          35409920000     100.0%      0.0%      0.0%
 flops    13 x    32 x    13          72419782656     100.0%      0.0%      0.0%
 flops     5 x    13 x    64         148659763200     100.0%      0.0%      0.0%
 flops    13 x     5 x    64         149961011200     100.0%      0.0%      0.0%
 flops    13 x    13 x    32         236448576000     100.0%      0.0%      0.0%
 flops    13 x    13 x    64        1351134720000     100.0%      0.0%      0.0%
 flops inhomo. stacks                           0       0.0%      0.0%      0.0%
 flops total                         2.206179E+12     100.0%      0.0%      0.0%
 flops max/rank                     26.625974E+09     100.0%      0.0%      0.0%
 matmuls inhomo. stacks                         0       0.0%      0.0%      0.0%
 matmuls total                          160063148     100.0%      0.0%      0.0%
 number of processed stacks               3930168     100.0%      0.0%      0.0%
 average stack size                                    40.7       0.0       0.0
 marketing flops                     3.579561E+12
 -------------------------------------------------------------------------------
 # multiplications                            272
 max memory usage/rank             665.202688E+06
 # max total images/rank                        7
 # max 3D layers                                1
 # MPI messages exchanged                 6580224
 MPI messages size (bytes):
  total size                       615.309771E+09
  min size                          24.320000E+03
  max size                         559.144000E+03
  average size                      93.508938E+03
 MPI breakdown and total messages size (bytes):
             size <=      128                   0                        0
       128 < size <=     8192                   0                        0
      8192 < size <=    32768             1431567              44282557872
     32768 < size <=   131072             4326129             263468760912
    131072 < size <=  4194304              822528             307558676160
   4194304 < size <= 16777216                   0                        0
  16777216 < size                               0                        0
 -------------------------------------------------------------------------------

 *** WARNING in dbcsr/mm/dbcsr_mm.F:267 :: Using a non-square number of ***
 *** MPI ranks might lead to poor performance.                          ***
 *** Used ranks: 112                                                    ***
 *** Suggested: 121 225                                                 ***

 -------------------------------------------------------------------------------
 
 MEMORY| Estimated peak process memory [MiB]                                 645

 -------------------------------------------------------------------------------
 ----                             MULTIGRID INFO                            ----
 -------------------------------------------------------------------------------
 count for grid        1:        4039827          cutoff [a.u.]          300.00
 count for grid        2:        3393964          cutoff [a.u.]          100.00
 count for grid        3:        2221519          cutoff [a.u.]           33.33
 count for grid        4:        1001869          cutoff [a.u.]           11.11
 total gridlevel count  :       10657179

 -------------------------------------------------------------------------------
 -                                                                             -
 -                         MESSAGE PASSING PERFORMANCE                         -
 -                                                                             -
 -------------------------------------------------------------------------------

 ROUTINE             CALLS      AVE VOLUME [Bytes]
 MP_Group              282
 MP_Bcast              530                 836502.
 MP_Allreduce         4786                   1114.
 MP_Sync               276
 MP_Alltoall         13168                4883670.
 MP_SendRecv          1332                   2848.
 MP_ISendRecv       116328                  66752.
 MP_Wait            200580
 MP_comm_split         260
 MP_ISend           136612                 145375.
 MP_IRecv           136612                 144896.
 MP_Recv               768                 866816.
 MP_Memory           73104
 -------------------------------------------------------------------------------


 -------------------------------------------------------------------------------
 -                                                                             -
 -                           R E F E R E N C E S                               -
 -                                                                             -
 -------------------------------------------------------------------------------
 
 CP2K version 5.1, the CP2K developers group (2017).
 CP2K is freely available from https://www.cp2k.org/ .

 Schuett, Ole; Messmer, Peter; Hutter, Juerg; VandeVondele, Joost. 
 Electronic Structure Calculations on Graphics Processing Units, John Wiley & Sons, Ltd, 173-190 (2016). 
 GPU-Accelerated Sparse Matrix-Matrix Multiplication for Linear Scaling Density Functional Theory.
 http://dx.doi.org/10.1002/9781118670712.ch8


 Borstnik, U; VandeVondele, J; Weber, V; Hutter, J. 
 PARALLEL COMPUTING, 40 (5-6), 47-58 (2014). 
 Sparse matrix multiplication: The distributed block-compressed sparse
 row library.
 http://dx.doi.org/10.1016/j.parco.2014.03.012


 Hutter, J; Iannuzzi, M; Schiffmann, F; VandeVondele, J. 
 WILEY INTERDISCIPLINARY REVIEWS-COMPUTATIONAL MOLECULAR SCIENCE, 4 (1), 15-25 (2014). 
 CP2K: atomistic simulations of condensed matter systems.
 http://dx.doi.org/10.1002/wcms.1159


 Grimme, S; Ehrlich, S; Goerigk, L. 
 JOURNAL OF COMPUTATIONAL CHEMISTRY, 32, 1456 (2011). 
 Effect of the damping function in dispersion corrected density functional theory.
 http://dx.doi.org/10.1002/jcc.21759


 Grimme, S; Antony, J; Ehrlich, S; Krieg, H. 
 JOURNAL OF CHEMICAL PHYSICS, 132 (15), 154104 (2010). 
 A consistent and accurate ab initio parametrization of density
 functional dispersion correction (DFT-D) for the 94 elements H-Pu.
 http://dx.doi.org/10.1063/1.3382344


 VandeVondele, J; Hutter, J. 
 JOURNAL OF CHEMICAL PHYSICS, 127 (11), 114105 (2007). 
 Gaussian basis sets for accurate calculations on molecular systems in
 gas and condensed phases.
 http://dx.doi.org/10.1063/1.2770708


 Krack, M. 
 THEORETICAL CHEMISTRY ACCOUNTS, 114 (1-3), 145-152 (2005). 
 Pseudopotentials for H to Kr optimized for gradient-corrected
 exchange-correlation functionals.
 http://dx.doi.org/10.1007/s00214-005-0655-y


 VandeVondele, J; Krack, M; Mohamed, F; Parrinello, M; Chassaing, T;
 Hutter, J. COMPUTER PHYSICS COMMUNICATIONS, 167 (2), 103-128 (2005). 
 QUICKSTEP: Fast and accurate density functional calculations using a
 mixed Gaussian and plane waves approach.
 http://dx.doi.org/10.1016/j.cpc.2004.12.014


 Frigo, M; Johnson, SG. 
 PROCEEDINGS OF THE IEEE, 93 (2), 216-231 (2005). 
 The design and implementation of FFTW3.
 http://dx.doi.org/10.1109/JPROC.2004.840301


 Kolafa, J. 
 JOURNAL OF COMPUTATIONAL CHEMISTRY, 25 (3), 335-342 (2004). 
 Time-reversible always stable predictor-corrector method for molecular dynamics of polarizable molecules.
 http://dx.doi.org/10.1002/jcc.10385


 Hartwigsen, C; Goedecker, S; Hutter, J. 
 PHYSICAL REVIEW B, 58 (7), 3641-3662 (1998). 
 Relativistic separable dual-space Gaussian pseudopotentials from H to Rn.
 http://dx.doi.org/10.1103/PhysRevB.58.3641


 Lippert, G; Hutter, J; Parrinello, M. 
 MOLECULAR PHYSICS, 92 (3), 477-487 (1997). 
 A hybrid Gaussian and plane wave density functional scheme.
 http://dx.doi.org/10.1080/002689797170220


 Perdew, JP; Burke, K; Ernzerhof, M. 
 PHYSICAL REVIEW LETTERS, 77 (18), 3865-3868 (1996). 
 Generalized gradient approximation made simple.
 http://dx.doi.org/10.1103/PhysRevLett.77.3865


 Goedecker, S; Teter, M; Hutter, J. 
 PHYSICAL REVIEW B, 54 (3), 1703-1710 (1996). 
 Separable dual-space Gaussian pseudopotentials.
 http://dx.doi.org/10.1103/PhysRevB.54.1703


 BYRD, RH; LU, PH; NOCEDAL, J; ZHU, CY. 
 SIAM JOURNAL ON SCIENTIFIC COMPUTING, 16 (5), 1190-1208 (1995). 
 A LIMITED MEMORY ALGORITHM FOR BOUND CONSTRAINED OPTIMIZATION.
 http://dx.doi.org/10.1137/0916069


 -------------------------------------------------------------------------------
 -                                                                             -
 -                                T I M I N G                                  -
 -                                                                             -
 -------------------------------------------------------------------------------
 SUBROUTINE                       CALLS  ASD         SELF TIME        TOTAL TIME
                                MAXIMUM       AVERAGE  MAXIMUM  AVERAGE  MAXIMUM
 CP2K                                 1  1.0    0.082    0.115  856.899  856.905
 cp_cell_opt                          1  2.0    0.005    0.012  855.969  855.974
 geoopt_lbfgs                         1  3.0    0.001    0.006  855.964  855.967
 cp_opt_gopt_step                     2  4.0    0.003    0.008  855.960  855.962
 cp_eval_at                           3  5.0    0.004    0.010  855.933  855.937
 qs_forces                            3  6.0    0.006    0.010  855.921  855.930
 qs_energies                          3  7.0    0.009    0.018  843.009  843.014
 scf_env_do_scf                       3  8.0    0.001    0.002  835.878  835.968
 scf_env_do_scf_inner_loop          128  9.0    0.013    0.018  835.859  835.949
 rebuild_ks_matrix                  131 10.9    0.003    0.004  338.104  338.130
 qs_ks_build_kohn_sham_matrix       131 11.9    0.038    0.066  338.101  338.128
 qs_ks_update_qs_env                128 10.0    0.001    0.001  327.754  327.781
 qs_scf_new_mos                     128 10.0    0.008    0.018  282.033  282.161
 eigensolver                        256 11.0    0.016    0.029  269.944  270.005
 pw_transfer                       4838 14.5    0.396    0.526  229.982  238.235
 fft_wrap_pw1pw2                   4576 15.5    0.052    0.065  228.721  236.882
 cp_fm_syevd                        260 12.0  108.647  229.268  230.368  231.476
 cp_fm_syevd_base                   260 13.0  120.101  224.998  120.101  224.998
 fft_wrap_pw1pw2_300               3004 16.5   12.818   13.745  216.186  224.439
 fft3d_ps                          4576 17.5   85.292   88.288  191.916  199.126
 qs_vxc_create                      131 12.9    0.004    0.008  175.659  176.386
 xc_vxc_pw_create                   131 13.9    6.114    6.871  175.655  176.384
 qs_rho_update_rho                  131 10.0    0.002    0.004  170.889  171.055
 calculate_rho_elec                 262 11.0   82.017   85.929  170.886  171.051
 sum_up_and_integrate               131 12.9    0.957    1.018  148.028  148.073
 integrate_v_rspace                 262 13.9   77.750   80.098  147.070  147.254
 mp_alltoall_z22v                  4576 19.5   86.744  103.595   86.744  103.595
 xc_rho_set_and_dset_create         131 14.9    1.243    1.328   87.193   89.970
 density_rs2pw                      262 12.0    0.019    0.023   81.131   85.148
 rs_pw_transfer                    2102 14.5    0.026    0.034   77.100   80.886
 potential_pw2rs                    262 14.9    0.047    0.052   64.724   64.932
 x_to_yz                           2215 18.7   12.166   13.077   58.631   60.213
 gspace_mixing                      125 10.0    0.375    0.440   57.500   57.535
 yz_to_x                           1837 18.2    6.054    7.146   46.289   56.365
 cp_fm_cholesky_restore             768 12.0   39.189   40.702   39.189   40.702
 broyden_mixing                     125 11.0   33.191   33.608   34.680   34.767
 mp_waitany                       14756 16.5   21.482   28.606   21.482   28.606
 rs_pw_transfer_PW2RS_300           265 16.9   15.902   16.621   24.884   26.312
 rs_pw_transfer_RS2PW_300           265 14.0   15.372   16.612   22.541   25.399
 xc_functional_eval                 131 15.9    0.002    0.003   20.661   23.388
 pbe_lsd_eval                       131 16.9   20.660   23.386   20.660   23.386
 pw_scatter_p                      2477 17.9   14.728   18.793   14.728   18.793
 -------------------------------------------------------------------------------

 The number of warnings for this run is : 2
 
 -------------------------------------------------------------------------------
  **** **** ******  **  PROGRAM ENDED AT                 2019-06-26 14:23:21.052
 ***** ** ***  *** **   PROGRAM RAN ON                                      f202
 **    ****   ******    PROGRAM RAN BY                                    ongari
 ***** **    ** ** **   PROGRAM PROCESS ID                                  2063
  **** **  *******  **  PROGRAM STOPPED IN /home/ongari/testing_cp2k/50_15180N2_
                                           standard
