 DBCSR| Multiplication driver                                               BLAS
 DBCSR| Multrec recursion limit                                              512
 DBCSR| Multiplication stack size                                           1000
 DBCSR| Maximum elements for images                                    UNLIMITED
 DBCSR| Multiplicative factor virtual images                                   1
 DBCSR| Multiplication size stacks                                             3
 DBCSR| Number of 3D layers                                               SINGLE
 DBCSR| Use MPI memory allocation                                              T
 DBCSR| Use RMA algorithm                                                      F
 DBCSR| Use Communication thread                                               T
 DBCSR| Communication thread load                                             87


  **** **** ******  **  PROGRAM STARTED AT               2019-02-20 01:02:40.796
 ***** ** ***  *** **   PROGRAM STARTED ON                                  f062
 **    ****   ******    PROGRAM STARTED BY                                ongari
 ***** **    ** ** **   PROGRAM PROCESS ID                                  7468
  **** **  *******  **  PROGRAM STARTED IN /scratch/ongari/aiida_run/64/ed/4ca8-
                                           c71c-41d5-96e5-ae6136b67d1e

 CP2K| version string:                                          CP2K version 5.1
 CP2K| source code revision number:                                    svn:18091
 CP2K| cp2kflags: libint fftw3 pexsi parallel mpi3 scalapack libderiv_max_am1=5 
 CP2K|            libint_max_am=6
 CP2K| is freely available from                            https://www.cp2k.org/
 CP2K| Program compiled at                          Thu Jul 5 11:15:01 CEST 2018
 CP2K| Program compiled on                                                  f016
 CP2K| Program compiled for                  linux-rhel7-x86_E5v4_Mellanox-intel
 CP2K| Data directory path            /home/ongari/aiida-database/data/cp2k/data
 CP2K| Input file name                                                 aiida.inp
 
 GLOBAL| Force Environment number                                              1
 GLOBAL| Basis set file name                                        BASIS_MOLOPT
 GLOBAL| Potential file name                                      GTH_POTENTIALS
 GLOBAL| MM Potential file name                                     MM_POTENTIAL
 GLOBAL| Coordinate file name                                   aiida.coords.xyz
 GLOBAL| Method name                                                        CP2K
 GLOBAL| Project name                                                      aiida
 GLOBAL| Preferred FFT library                                             FFTW3
 GLOBAL| Preferred diagonalization lib.                                       SL
 GLOBAL| Run type                                                       CELL_OPT
 GLOBAL| All-to-all communication in single precision                          F
 GLOBAL| FFTs using library dependent lengths                                  T
 GLOBAL| Global print level                                               MEDIUM
 GLOBAL| Total number of message passing processes                            56
 GLOBAL| Number of threads for this process                                    1
 GLOBAL| This output is from process                                           0
 GLOBAL| CPU model name :  Intel(R) Xeon(R) CPU E5-2690 v4 @ 2.60GHz

 MEMORY| system memory details [Kb]
 MEMORY|                        rank 0           min           max       average
 MEMORY| MemTotal            263747572     263747572     263747572     263747572
 MEMORY| MemFree             245820852     245232220     245820852     245526536
 MEMORY| Buffers                  1924          1204          1924          1564
 MEMORY| Cached                 297752        297752        568380        433066
 MEMORY| Slab                  1373072       1373072       1413796       1393434
 MEMORY| SReclaimable            58544         58544         68660         63602
 MEMORY| MemLikelyFree       246179072     245870464     246179072     246024768


 *** Fundamental physical constants (SI units) ***

 *** Literature: B. J. Mohr and B. N. Taylor,
 ***             CODATA recommended values of the fundamental physical
 ***             constants: 2006, Web Version 5.1
 ***             http://physics.nist.gov/constants

 Speed of light in vacuum [m/s]                             2.99792458000000E+08
 Magnetic constant or permeability of vacuum [N/A**2]       1.25663706143592E-06
 Electric constant or permittivity of vacuum [F/m]          8.85418781762039E-12
 Planck constant (h) [J*s]                                  6.62606896000000E-34
 Planck constant (h-bar) [J*s]                              1.05457162825177E-34
 Elementary charge [C]                                      1.60217648700000E-19
 Electron mass [kg]                                         9.10938215000000E-31
 Electron g factor [ ]                                     -2.00231930436220E+00
 Proton mass [kg]                                           1.67262163700000E-27
 Fine-structure constant                                    7.29735253760000E-03
 Rydberg constant [1/m]                                     1.09737315685270E+07
 Avogadro constant [1/mol]                                  6.02214179000000E+23
 Boltzmann constant [J/K]                                   1.38065040000000E-23
 Atomic mass unit [kg]                                      1.66053878200000E-27
 Bohr radius [m]                                            5.29177208590000E-11

 *** Conversion factors ***

 [u] -> [a.u.]                                              1.82288848426455E+03
 [Angstrom] -> [Bohr] = [a.u.]                              1.88972613288564E+00
 [a.u.] = [Bohr] -> [Angstrom]                              5.29177208590000E-01
 [a.u.] -> [s]                                              2.41888432650478E-17
 [a.u.] -> [fs]                                             2.41888432650478E-02
 [a.u.] -> [J]                                              4.35974393937059E-18
 [a.u.] -> [N]                                              8.23872205491840E-08
 [a.u.] -> [K]                                              3.15774647902944E+05
 [a.u.] -> [kJ/mol]                                         2.62549961709828E+03
 [a.u.] -> [kcal/mol]                                       6.27509468713739E+02
 [a.u.] -> [Pa]                                             2.94210107994716E+13
 [a.u.] -> [bar]                                            2.94210107994716E+08
 [a.u.] -> [atm]                                            2.90362800883016E+08
 [a.u.] -> [eV]                                             2.72113838565563E+01
 [a.u.] -> [Hz]                                             6.57968392072181E+15
 [a.u.] -> [1/cm] (wave numbers)                            2.19474631370540E+05
 [a.u./Bohr**2] -> [1/cm]                                   5.14048714338585E+03
 

 CELL_TOP| Volume [angstrom^3]:                                         1594.858
 CELL_TOP| Vector a [angstrom    15.350    -0.113    -0.098    |a| =      15.351
 CELL_TOP| Vector b [angstrom    -7.773    13.146    -0.088    |b| =      15.273
 CELL_TOP| Vector c [angstrom    -0.052    -0.084     7.939    |c| =       7.940
 CELL_TOP| Angle (b,c), alpha [degree]:                                   90.658
 CELL_TOP| Angle (a,c), beta  [degree]:                                   90.738
 CELL_TOP| Angle (a,b), gamma [degree]:                                  121.011
 CELL_TOP| Numerically orthorhombic:                                          NO
 
 GENERATE|  Preliminary Number of Bonds generated:                             0
 GENERATE|  Achieved consistency in connectivity generation.

 CELL| Volume [angstrom^3]:                                             1594.858
 CELL| Vector a [angstrom]:      15.350    -0.113    -0.098    |a| =      15.351
 CELL| Vector b [angstrom]:      -7.773    13.146    -0.088    |b| =      15.273
 CELL| Vector c [angstrom]:      -0.052    -0.084     7.939    |c| =       7.940
 CELL| Angle (b,c), alpha [degree]:                                       90.658
 CELL| Angle (a,c), beta  [degree]:                                       90.738
 CELL| Angle (a,b), gamma [degree]:                                      121.011
 CELL| Numerically orthorhombic:                                              NO

 CELL_REF| Volume [angstrom^3]:                                         1594.858
 CELL_REF| Vector a [angstrom    15.350    -0.113    -0.098    |a| =      15.351
 CELL_REF| Vector b [angstrom    -7.773    13.146    -0.088    |b| =      15.273
 CELL_REF| Vector c [angstrom    -0.052    -0.084     7.939    |c| =       7.940
 CELL_REF| Angle (b,c), alpha [degree]:                                   90.658
 CELL_REF| Angle (a,c), beta  [degree]:                                   90.738
 CELL_REF| Angle (a,b), gamma [degree]:                                  121.011
 CELL_REF| Numerically orthorhombic:                                          NO

 *******************************************************************************
 *******************************************************************************
 **                                                                           **
 **     #####                         ##              ##                      **
 **    ##   ##            ##          ##              ##                      **
 **   ##     ##                       ##            ######                    **
 **   ##     ##  ##   ##  ##   #####  ##  ##   ####   ##    #####    #####    **
 **   ##     ##  ##   ##  ##  ##      ## ##   ##      ##   ##   ##  ##   ##   **
 **   ##  ## ##  ##   ##  ##  ##      ####     ###    ##   ######   ######    **
 **    ##  ###   ##   ##  ##  ##      ## ##      ##   ##   ##       ##        **
 **     #######   #####   ##   #####  ##  ##  ####    ##    #####   ##        **
 **           ##                                                    ##        **
 **                                                                           **
 **                                                ... make the atoms dance   **
 **                                                                           **
 **            Copyright (C) by CP2K developers group (2000 - 2017)           **
 **                                                                           **
 *******************************************************************************

 *** WARNING in qs_environment.F:1057 :: More added MOs requested than ***
 *** available. The full set of unoccupied MOs will be used.           ***


 DFT| Spin restricted Kohn-Sham (RKS) calculation                            RKS
 DFT| Multiplicity                                                             1
 DFT| Number of spin states                                                    1
 DFT| Charge                                                                   0
 DFT| Self-interaction correction (SIC)                                       NO
 DFT| Cutoffs: density                                              1.000000E-10
 DFT|          gradient                                             1.000000E-10
 DFT|          tau                                                  1.000000E-10
 DFT|          cutoff_smoothing_range                               0.000000E+00
 DFT| XC density smoothing                                                  NONE
 DFT| XC derivatives                                                          PW
 FUNCTIONAL| ROUTINE=NEW
 FUNCTIONAL| PBE:
 FUNCTIONAL| J.P.Perdew, K.Burke, M.Ernzerhof, Phys. Rev. Letter, vol. 77, n 18,
 FUNCTIONAL|  pp. 3865-3868, (1996){spin unpolarized}                           
 vdW POTENTIAL|                                                   Pair Potential
 vdW POTENTIAL|          DFT-D3 (Version 3.1)
 vdW POTENTIAL|          Potential Form: S. Grimme et al, JCP 132: 154104 (2010)
 vdW POTENTIAL|          BJ Damping: S. Grimme et al, JCC 32: 1456 (2011)
 vdW POTENTIAL|          Cutoff Radius [Bohr]:                             20.00
 vdW POTENTIAL|          s6 Scaling Factor:                               1.0000
 vdW POTENTIAL|          a1 Damping Factor:                               0.4289
 vdW POTENTIAL|          s8 Scaling Factor:                               0.7875
 vdW POTENTIAL|          a2 Damping Factor:                               4.4407
 vdW POTENTIAL|          Cutoff for CN calculation:                   0.1000E-05

 QS| Method:                                                                 GPW
 QS| Density plane wave grid type                        NON-SPHERICAL FULLSPACE
 QS| Number of grid levels:                                                    4
 QS| Density cutoff [a.u.]:                                                300.0
 QS| Multi grid cutoff [a.u.]: 1) grid level                               300.0
 QS|                           2) grid level                               100.0
 QS|                           3) grid level                                33.3
 QS|                           4) grid level                                11.1
 QS| Grid level progression factor:                                          3.0
 QS| Relative density cutoff [a.u.]:                                        25.0
 QS| Consistent realspace mapping and integration 
 QS| Interaction thresholds: eps_pgf_orb:                                1.0E-05
 QS|                         eps_filter_matrix:                          0.0E+00
 QS|                         eps_core_charge:                            1.0E-12
 QS|                         eps_rho_gspace:                             1.0E-10
 QS|                         eps_rho_rspace:                             1.0E-10
 QS|                         eps_gvg_rspace:                             1.0E-05
 QS|                         eps_ppl:                                    1.0E-02
 QS|                         eps_ppnl:                                   1.0E-07


 ATOMIC KIND INFORMATION

  1. Atomic kind: B                                     Number of atoms:       6

     Orbital Basis Set                                     DZVP-MOLOPT-SR-GTH-q3

       Number of orbital shell sets:                                           1
       Number of orbital shells:                                               5
       Number of primitive Cartesian functions:                                4
       Number of Cartesian basis functions:                                   14
       Number of spherical basis functions:                                   13
       Norm type:                                                              2

       Normalised Cartesian orbitals:

                        Set   Shell   Orbital            Exponent    Coefficient

                          1       1    2s                3.053444       0.252402
                                                         0.915484       0.050494
                                                         0.329920      -0.219689
                                                         0.101655      -0.057697

                          1       2    3s                3.053444      -0.889751
                                                         0.915484      -0.125118
                                                         0.329920       0.537314
                                                         0.101655      -0.211019

                          1       3    3px               3.053444      -0.570049
                                                         0.915484      -0.388730
                                                         0.329920      -0.182602
                                                         0.101655      -0.024010
                          1       3    3py               3.053444      -0.570049
                                                         0.915484      -0.388730
                                                         0.329920      -0.182602
                                                         0.101655      -0.024010
                          1       3    3pz               3.053444      -0.570049
                                                         0.915484      -0.388730
                                                         0.329920      -0.182602
                                                         0.101655      -0.024010

                          1       4    4px               3.053444      -0.595374
                                                         0.915484      -0.502823
                                                         0.329920      -0.128778
                                                         0.101655       0.089873
                          1       4    4py               3.053444      -0.595374
                                                         0.915484      -0.502823
                                                         0.329920      -0.128778
                                                         0.101655       0.089873
                          1       4    4pz               3.053444      -0.595374
                                                         0.915484      -0.502823
                                                         0.329920      -0.128778
                                                         0.101655       0.089873

                          1       5    4dx2              3.053444      -0.371712
                                                         0.915484      -0.428539
                                                         0.329920      -0.123001
                                                         0.101655      -0.011638
                          1       5    4dxy              3.053444      -0.643825
                                                         0.915484      -0.742250
                                                         0.329920      -0.213044
                                                         0.101655      -0.020158
                          1       5    4dxz              3.053444      -0.643825
                                                         0.915484      -0.742250
                                                         0.329920      -0.213044
                                                         0.101655      -0.020158
                          1       5    4dy2              3.053444      -0.371712
                                                         0.915484      -0.428539
                                                         0.329920      -0.123001
                                                         0.101655      -0.011638
                          1       5    4dyz              3.053444      -0.643825
                                                         0.915484      -0.742250
                                                         0.329920      -0.213044
                                                         0.101655      -0.020158
                          1       5    4dz2              3.053444      -0.371712
                                                         0.915484      -0.428539
                                                         0.329920      -0.123001
                                                         0.101655      -0.011638

     GTH Potential information for                                    GTH-PBE-q3

       Description:                       Goedecker-Teter-Hutter pseudopotential
                                           Goedecker et al., PRB 54, 1703 (1996)
                                          Hartwigsen et al., PRB 58, 3641 (1998)
                                                      Krack, TCA 114, 145 (2005)

       Gaussian exponent of the core charge distribution:               2.848129
       Electronic configuration (s p d ...):                               2   1

       Parameters of the local part of the GTH pseudopotential:

                          rloc        C1          C2          C3          C4
                        0.418991   -5.859462    0.903756

       Parameters of the non-local part of the GTH pseudopotential:

                   l      r(l)      h(i,j,l)

                   0    0.371320    6.297280
                   1    0.364563

  2. Atomic kind: C                                     Number of atoms:      48

     Orbital Basis Set                                     DZVP-MOLOPT-SR-GTH-q4

       Number of orbital shell sets:                                           1
       Number of orbital shells:                                               5
       Number of primitive Cartesian functions:                                5
       Number of Cartesian basis functions:                                   14
       Number of spherical basis functions:                                   13
       Norm type:                                                              2

       Normalised Cartesian orbitals:

                        Set   Shell   Orbital            Exponent    Coefficient

                          1       1    2s                5.605331       0.322515
                                                         2.113016       0.213043
                                                         0.769911      -0.209686
                                                         0.348157      -0.219794
                                                         0.128212      -0.022789

                          1       2    3s                5.605331       0.552234
                                                         2.113016       0.082072
                                                         0.769911       0.007843
                                                         0.348157       0.136893
                                                         0.128212       0.074283

                          1       3    3px               5.605331      -0.703879
                                                         2.113016      -0.642521
                                                         0.769911      -0.374851
                                                         0.348157      -0.139743
                                                         0.128212      -0.027849
                          1       3    3py               5.605331      -0.703879
                                                         2.113016      -0.642521
                                                         0.769911      -0.374851
                                                         0.348157      -0.139743
                                                         0.128212      -0.027849
                          1       3    3pz               5.605331      -0.703879
                                                         2.113016      -0.642521
                                                         0.769911      -0.374851
                                                         0.348157      -0.139743
                                                         0.128212      -0.027849

                          1       4    4px               5.605331      -0.480376
                                                         2.113016      -0.552894
                                                         0.769911      -0.316145
                                                         0.348157       0.210505
                                                         0.128212       0.076095
                          1       4    4py               5.605331      -0.480376
                                                         2.113016      -0.552894
                                                         0.769911      -0.316145
                                                         0.348157       0.210505
                                                         0.128212       0.076095
                          1       4    4pz               5.605331      -0.480376
                                                         2.113016      -0.552894
                                                         0.769911      -0.316145
                                                         0.348157       0.210505
                                                         0.128212       0.076095

                          1       5    4dx2              5.605331       0.640026
                                                         2.113016       0.274300
                                                         0.769911       0.446711
                                                         0.348157       0.028674
                                                         0.128212       0.029790
                          1       5    4dxy              5.605331       1.108557
                                                         2.113016       0.475102
                                                         0.769911       0.773726
                                                         0.348157       0.049666
                                                         0.128212       0.051599
                          1       5    4dxz              5.605331       1.108557
                                                         2.113016       0.475102
                                                         0.769911       0.773726
                                                         0.348157       0.049666
                                                         0.128212       0.051599
                          1       5    4dy2              5.605331       0.640026
                                                         2.113016       0.274300
                                                         0.769911       0.446711
                                                         0.348157       0.028674
                                                         0.128212       0.029790
                          1       5    4dyz              5.605331       1.108557
                                                         2.113016       0.475102
                                                         0.769911       0.773726
                                                         0.348157       0.049666
                                                         0.128212       0.051599
                          1       5    4dz2              5.605331       0.640026
                                                         2.113016       0.274300
                                                         0.769911       0.446711
                                                         0.348157       0.028674
                                                         0.128212       0.029790

     GTH Potential information for                                    GTH-PBE-q4

       Description:                       Goedecker-Teter-Hutter pseudopotential
                                           Goedecker et al., PRB 54, 1703 (1996)
                                          Hartwigsen et al., PRB 58, 3641 (1998)
                                                      Krack, TCA 114, 145 (2005)

       Gaussian exponent of the core charge distribution:               4.364419
       Electronic configuration (s p d ...):                               2   2

       Parameters of the local part of the GTH pseudopotential:

                          rloc        C1          C2          C3          C4
                        0.338471   -8.803674    1.339211

       Parameters of the non-local part of the GTH pseudopotential:

                   l      r(l)      h(i,j,l)

                   0    0.302576    9.622487
                   1    0.291507

  3. Atomic kind: O                                     Number of atoms:      12

     Orbital Basis Set                                     DZVP-MOLOPT-SR-GTH-q6

       Number of orbital shell sets:                                           1
       Number of orbital shells:                                               5
       Number of primitive Cartesian functions:                                5
       Number of Cartesian basis functions:                                   14
       Number of spherical basis functions:                                   13
       Norm type:                                                              2

       Normalised Cartesian orbitals:

                        Set   Shell   Orbital            Exponent    Coefficient

                          1       1    2s               10.389228       0.396646
                                                         3.849621       0.208811
                                                         1.388401      -0.301641
                                                         0.496955      -0.274061
                                                         0.162492      -0.033677

                          1       2    3s               10.389228       0.303673
                                                         3.849621       0.240943
                                                         1.388401      -0.313066
                                                         0.496955      -0.043055
                                                         0.162492       0.213991

                          1       3    3px              10.389228      -1.530415
                                                         3.849621      -1.371928
                                                         1.388401      -0.761951
                                                         0.496955      -0.253695
                                                         0.162492      -0.035541
                          1       3    3py              10.389228      -1.530415
                                                         3.849621      -1.371928
                                                         1.388401      -0.761951
                                                         0.496955      -0.253695
                                                         0.162492      -0.035541
                          1       3    3pz              10.389228      -1.530415
                                                         3.849621      -1.371928
                                                         1.388401      -0.761951
                                                         0.496955      -0.253695
                                                         0.162492      -0.035541

                          1       4    4px              10.389228      -0.565392
                                                         3.849621      -0.038231
                                                         1.388401      -0.382373
                                                         0.496955       0.179070
                                                         0.162492       0.122714
                          1       4    4py              10.389228      -0.565392
                                                         3.849621      -0.038231
                                                         1.388401      -0.382373
                                                         0.496955       0.179070
                                                         0.162492       0.122714
                          1       4    4pz              10.389228      -0.565392
                                                         3.849621      -0.038231
                                                         1.388401      -0.382373
                                                         0.496955       0.179070
                                                         0.162492       0.122714

                          1       5    4dx2             10.389228       1.867377
                                                         3.849621       0.670994
                                                         1.388401       1.353441
                                                         0.496955       0.273538
                                                         0.162492       0.006620
                          1       5    4dxy             10.389228       3.234392
                                                         3.849621       1.162195
                                                         1.388401       2.344229
                                                         0.496955       0.473781
                                                         0.162492       0.011466
                          1       5    4dxz             10.389228       3.234392
                                                         3.849621       1.162195
                                                         1.388401       2.344229
                                                         0.496955       0.473781
                                                         0.162492       0.011466
                          1       5    4dy2             10.389228       1.867377
                                                         3.849621       0.670994
                                                         1.388401       1.353441
                                                         0.496955       0.273538
                                                         0.162492       0.006620
                          1       5    4dyz             10.389228       3.234392
                                                         3.849621       1.162195
                                                         1.388401       2.344229
                                                         0.496955       0.473781
                                                         0.162492       0.011466
                          1       5    4dz2             10.389228       1.867377
                                                         3.849621       0.670994
                                                         1.388401       1.353441
                                                         0.496955       0.273538
                                                         0.162492       0.006620

     GTH Potential information for                                    GTH-PBE-q6

       Description:                       Goedecker-Teter-Hutter pseudopotential
                                           Goedecker et al., PRB 54, 1703 (1996)
                                          Hartwigsen et al., PRB 58, 3641 (1998)
                                                      Krack, TCA 114, 145 (2005)

       Gaussian exponent of the core charge distribution:               8.360253
       Electronic configuration (s p d ...):                               2   4

       Parameters of the local part of the GTH pseudopotential:

                          rloc        C1          C2          C3          C4
                        0.244554  -16.667215    2.487311

       Parameters of the non-local part of the GTH pseudopotential:

                   l      r(l)      h(i,j,l)

                   0    0.220956   18.337458
                   1    0.211332

  4. Atomic kind: H                                     Number of atoms:      18

     Orbital Basis Set                                     DZVP-MOLOPT-SR-GTH-q1

       Number of orbital shell sets:                                           1
       Number of orbital shells:                                               3
       Number of primitive Cartesian functions:                                5
       Number of Cartesian basis functions:                                    5
       Number of spherical basis functions:                                    5
       Norm type:                                                              2

       Normalised Cartesian orbitals:

                        Set   Shell   Orbital            Exponent    Coefficient

                          1       1    2s               10.068468      -0.133023
                                                         2.680223      -0.177618
                                                         0.791502      -0.258419
                                                         0.239116      -0.107525
                                                         0.082193      -0.014019

                          1       2    3s               10.068468       0.344673
                                                         2.680223       1.819821
                                                         0.791502      -0.999069
                                                         0.239116       0.017430
                                                         0.082193       0.082660

                          1       3    3px              10.068468       0.155326
                                                         2.680223       0.367157
                                                         0.791502       0.311480
                                                         0.239116       0.080105
                                                         0.082193       0.033440
                          1       3    3py              10.068468       0.155326
                                                         2.680223       0.367157
                                                         0.791502       0.311480
                                                         0.239116       0.080105
                                                         0.082193       0.033440
                          1       3    3pz              10.068468       0.155326
                                                         2.680223       0.367157
                                                         0.791502       0.311480
                                                         0.239116       0.080105
                                                         0.082193       0.033440

     GTH Potential information for                                    GTH-PBE-q1

       Description:                       Goedecker-Teter-Hutter pseudopotential
                                           Goedecker et al., PRB 54, 1703 (1996)
                                          Hartwigsen et al., PRB 58, 3641 (1998)
                                                      Krack, TCA 114, 145 (2005)

       Gaussian exponent of the core charge distribution:              12.500000
       Electronic configuration (s p d ...):                                   1

       Parameters of the local part of the GTH pseudopotential:

                          rloc        C1          C2          C3          C4
                        0.200000   -4.178900    0.724463


 MOLECULE KIND INFORMATION


 All atoms are their own molecule, skipping detailed information


 TOTAL NUMBERS AND MAXIMUM NUMBERS

  Total number of            - Atomic kinds:                                   4
                             - Atoms:                                         84
                             - Shell sets:                                    84
                             - Shells:                                       384
                             - Primitive Cartesian functions:                414
                             - Cartesian basis functions:                   1014
                             - Spherical basis functions:                    948

  Maximum angular momentum of- Orbital basis functions:                        2
                             - Local part of the GTH pseudopotential:          2
                             - Non-local part of the GTH pseudopotential:      0


 MODULE QUICKSTEP:  ATOMIC COORDINATES IN angstrom

  Atom  Kind  Element       X           Y           Z          Z(eff)       Mass

       1     1 B    5    2.445396    7.120792    1.718998      3.00      10.8110
       2     2 C    6    1.147352    7.928384    1.627252      4.00      12.0107
       3     1 B    5   -0.207225   11.739663    1.939975      3.00      10.8110
       4     2 C    6   -0.049868   10.115675    1.880202      4.00      12.0107
       5     1 B    5   -2.634215    7.229173    1.986248      3.00      10.8110
       6     2 C    6   -1.277529    7.961028    1.800570      4.00      12.0107
       7     3 O    8    0.964234   12.584878    1.604580      6.00      15.9994
       8     2 C    6    8.318033    3.163167    1.791530      4.00      12.0107
       9     2 C    6    8.242363    0.777390    1.723738      4.00      12.0107
      10     2 C    6    9.008950    1.921289    1.646308      4.00      12.0107
      11     4 H    1   10.011019    1.964803    1.226430      1.00       1.0079
      12     3 O    8   -3.840291    7.897439    2.174974      6.00      15.9994
      13     2 C    6    8.338248    5.695305    1.907829      4.00      12.0107
      14     2 C    6   10.541468    6.804500    2.110849      4.00      12.0107
      15     2 C    6    9.130645    6.884997    2.061802      4.00      12.0107
      16     4 H    1    8.821986    7.890182    2.108739      1.00       1.0079
      17     3 O    8    2.705168    5.726097    1.929491      6.00      15.9994
      18     2 C    6    6.122284    4.415726    1.910217      4.00      12.0107
      19     2 C    6    4.068645    5.575112    1.880134      4.00      12.0107
      20     2 C    6    4.722705    4.409698    1.867870      4.00      12.0107
      21     4 H    1    4.112851    3.486020    1.968448      1.00       1.0079
      22     3 O    8   -2.840182    5.817341    2.014516      6.00      15.9994
      23     2 C    6    9.021871    4.398031    1.847307      4.00      12.0107
      24     2 C    6   11.134823    5.581690    2.017296      4.00      12.0107
      25     2 C    6   10.378121    4.406035    1.846623      4.00      12.0107
      26     4 H    1   10.970440    3.498918    1.721485      1.00       1.0079
      27     3 O    8   -1.328920   12.557870    2.199412      6.00      15.9994
      28     2 C    6    6.881975    3.125773    1.963763      4.00      12.0107
      29     2 C    6    6.885684    0.713051    2.101609      4.00      12.0107
      30     2 C    6    6.143760    1.853245    2.193580      4.00      12.0107
      31     4 H    1    5.018939    1.819972    2.510070      1.00       1.0079
      32     3 O    8    3.665624    7.780676    1.650364      6.00      15.9994
      33     2 C    6    6.819668    5.638882    1.812347      4.00      12.0107
      34     2 C    6    4.651565    6.782284    1.753848      4.00      12.0107
      35     2 C    6    6.036472    6.858338    1.729859      4.00      12.0107
      36     4 H    1    6.647943    7.699075    1.758318      1.00       1.0079
      37     2 C    6    1.154286    9.332547    1.862967      4.00      12.0107
      38     2 C    6   -1.232006    9.390373    1.914346      4.00      12.0107
      39     2 C    6   -0.088605    7.270538    1.485191      4.00      12.0107
      40     4 H    1   -0.075119    6.226806    1.321605      1.00       1.0079
      41     4 H    1    2.157064    9.774109    2.054694      1.00       1.0079
      42     4 H    1   -2.220311    9.895531    2.073520      1.00       1.0079
      43     1 B    5    2.507060    7.009285    5.799424      3.00      10.8110
      44     2 C    6    1.142550    7.831538    5.877517      4.00      12.0107
      45     1 B    5   -0.037362   11.606241    5.908716      3.00      10.8110
      46     2 C    6   -0.030852   10.030841    5.783472      4.00      12.0107
      47     1 B    5   -2.693478    7.182370    5.933401      3.00      10.8110
      48     2 C    6   -1.359853    8.012309    5.673113      4.00      12.0107
      49     3 O    8    1.122022   12.362614    5.665384      6.00      15.9994
      50     2 C    6    8.415275    3.009315    5.849246      4.00      12.0107
      51     2 C    6    8.494858    0.555423    5.866589      4.00      12.0107
      52     2 C    6    9.113065    1.771993    5.898438      4.00      12.0107
      53     4 H    1   10.243310    1.805666    5.717256      1.00       1.0079
      54     3 O    8   -4.003133    7.776190    6.007325      6.00      15.9994
      55     2 C    6    8.351194    5.497388    5.942161      4.00      12.0107
      56     2 C    6   10.475731    6.607774    6.019196      4.00      12.0107
      57     2 C    6    9.083776    6.666534    6.155387      4.00      12.0107
      58     4 H    1    8.764678    7.717653    6.130750      1.00       1.0079
      59     3 O    8    2.619075    5.610907    5.946515      6.00      15.9994
      60     2 C    6    6.185145    4.226571    5.767341      4.00      12.0107
      61     2 C    6    3.990697    5.330929    5.812182      4.00      12.0107
      62     2 C    6    4.748472    4.136652    5.966027      4.00      12.0107
      63     4 H    1    4.181116    3.197250    5.980212      1.00       1.0079
      64     3 O    8   -2.807105    5.762100    6.173762      6.00      15.9994
      65     2 C    6    9.107485    4.283810    5.963122      4.00      12.0107
      66     2 C    6   11.191843    5.431948    6.056792      4.00      12.0107
      67     2 C    6   10.510806    4.230652    6.124781      4.00      12.0107
      68     4 H    1   11.083379    3.339500    5.956433      1.00       1.0079
      69     3 O    8   -1.153004   12.433170    6.066047      6.00      15.9994
      70     2 C    6    6.995349    3.002016    5.870506      4.00      12.0107
      71     2 C    6    7.089114    0.540026    6.015613      4.00      12.0107
      72     2 C    6    6.313251    1.741418    5.997462      4.00      12.0107
      73     4 H    1    5.261836    1.678371    6.022608      1.00       1.0079
      74     3 O    8    3.737826    7.491153    5.444378      6.00      15.9994
      75     2 C    6    6.865282    5.500321    5.774126      4.00      12.0107
      76     2 C    6    4.667831    6.536192    5.590318      4.00      12.0107
      77     2 C    6    6.077955    6.677724    5.605688      4.00      12.0107
      78     4 H    1    6.479451    7.624128    5.574986      1.00       1.0079
      79     2 C    6    1.166195    9.223195    5.849943      4.00      12.0107
      80     2 C    6   -1.310416    9.444130    5.614924      4.00      12.0107
      81     2 C    6   -0.177888    7.251965    5.780681      4.00      12.0107
      82     4 H    1   -0.222860    6.106246    5.887809      1.00       1.0079
      83     4 H    1    2.163718    9.752826    5.765425      1.00       1.0079
      84     4 H    1   -2.182506   10.088236    5.734630      1.00       1.0079




 SCF PARAMETERS         Density guess:                                   RESTART
                        --------------------------------------------------------
                        max_scf:                                             500
                        max_scf_history:                                       0
                        max_diis:                                              4
                        --------------------------------------------------------
                        eps_scf:                                        1.00E-06
                        eps_scf_history:                                0.00E+00
                        eps_diis:                                       1.00E-01
                        eps_eigval:                                     1.00E-05
                        --------------------------------------------------------
                        level_shift [a.u.]:                                 0.00
                        added MOs                                       798    0
                        --------------------------------------------------------
                        Mixing method:                            BROYDEN_MIXING
                                                charge density mixing in g-space
                        --------------------------------------------------------
                        Smear method:                                FERMI_DIRAC
                        Electronic temperature [K]:                        300.0
                        Electronic temperature [a.u.]:                  9.50E-04
                        Accuracy threshold:                             1.00E-10
                        --------------------------------------------------------
                        No outer SCF

 PW_GRID| Information for grid number                                          1
 PW_GRID| Grid distributed over                                    56 processors
 PW_GRID| Real space group dimensions                                    56    1
 PW_GRID| the grid is blocked:                                                NO
 PW_GRID| Cutoff [a.u.]                                                    300.0
 PW_GRID| spherical cutoff:                                                   NO
 PW_GRID|   Bounds   1           -115     115                Points:         231
 PW_GRID|   Bounds   2           -112     112                Points:         225
 PW_GRID|   Bounds   3            -60      59                Points:         120
 PW_GRID| Volume element (a.u.^3)  0.1726E-02     Volume (a.u.^3)     10762.6338
 PW_GRID| Grid span                                                    FULLSPACE
 PW_GRID|   Distribution                         Average         Max         Min
 PW_GRID|   G-Vectors                           111375.0      111573      111342
 PW_GRID|   G-Rays                                 482.1         483         482
 PW_GRID|   Real Space Points                   111375.0      135000      108000

 PW_GRID| Information for grid number                                          2
 PW_GRID| Grid distributed over                                    56 processors
 PW_GRID| Real space group dimensions                                    56    1
 PW_GRID| the grid is blocked:                                                NO
 PW_GRID| Cutoff [a.u.]                                                    100.0
 PW_GRID| spherical cutoff:                                                   NO
 PW_GRID|   Bounds   1            -66      65                Points:         132
 PW_GRID|   Bounds   2            -66      65                Points:         132
 PW_GRID|   Bounds   3            -35      34                Points:          70
 PW_GRID| Volume element (a.u.^3)  0.8824E-02     Volume (a.u.^3)     10762.6338
 PW_GRID| Grid span                                                    FULLSPACE
 PW_GRID|   Distribution                         Average         Max         Min
 PW_GRID|   G-Vectors                            21780.0       22572       20856
 PW_GRID|   G-Rays                                 165.0         171         158
 PW_GRID|   Real Space Points                    21780.0       27720       18480

 PW_GRID| Information for grid number                                          3
 PW_GRID| Grid distributed over                                    56 processors
 PW_GRID| Real space group dimensions                                    56    1
 PW_GRID| the grid is blocked:                                                NO
 PW_GRID| Cutoff [a.u.]                                                     33.3
 PW_GRID| spherical cutoff:                                                   NO
 PW_GRID|   Bounds   1            -37      37                Points:          75
 PW_GRID|   Bounds   2            -37      37                Points:          75
 PW_GRID|   Bounds   3            -20      19                Points:          40
 PW_GRID| Volume element (a.u.^3)  0.4783E-01     Volume (a.u.^3)     10762.6338
 PW_GRID| Grid span                                                    FULLSPACE
 PW_GRID|   Distribution                         Average         Max         Min
 PW_GRID|   G-Vectors                             4017.9        4275        3750
 PW_GRID|   G-Rays                                  53.6          57          50
 PW_GRID|   Real Space Points                     4017.9        6000        3000

 PW_GRID| Information for grid number                                          4
 PW_GRID| Grid distributed over                                    56 processors
 PW_GRID| Real space group dimensions                                     7    8
 PW_GRID| the grid is blocked:                                                NO
 PW_GRID| Cutoff [a.u.]                                                     11.1
 PW_GRID| spherical cutoff:                                                   NO
 PW_GRID|   Bounds   1            -22      21                Points:          44
 PW_GRID|   Bounds   2            -22      21                Points:          44
 PW_GRID|   Bounds   3            -12      11                Points:          24
 PW_GRID| Volume element (a.u.^3)  0.2316         Volume (a.u.^3)     10762.6338
 PW_GRID| Grid span                                                    FULLSPACE
 PW_GRID|   Distribution                         Average         Max         Min
 PW_GRID|   G-Vectors                              829.7         968         704
 PW_GRID|   G-Rays                                  18.9          22          16
 PW_GRID|   Real Space Points                      829.7        1008         720

 POISSON| Solver                                                        PERIODIC
 POISSON| Periodicity                                                        XYZ

 RS_GRID| Information for grid number                                          1
 RS_GRID|   Bounds   1           -115     115                Points:         231
 RS_GRID|   Bounds   2           -112     112                Points:         225
 RS_GRID|   Bounds   3            -60      59                Points:         120
 RS_GRID| Real space distribution over                                  8 groups
 RS_GRID| Real space distribution along direction                              1
 RS_GRID| Border size                                                         40
 RS_GRID| Real space distribution over                                  7 groups
 RS_GRID| Real space distribution along direction                              2
 RS_GRID| Border size                                                         40
 RS_GRID|   Distribution                         Average         Max         Min
 RS_GRID|   Planes                                 108.9         109         108
 RS_GRID|   Distribution                         Average         Max         Min
 RS_GRID|   Planes                                 112.1         113         112

 RS_GRID| Information for grid number                                          2
 RS_GRID|   Bounds   1            -66      65                Points:         132
 RS_GRID|   Bounds   2            -66      65                Points:         132
 RS_GRID|   Bounds   3            -35      34                Points:          70
 RS_GRID| Real space distribution over                                  8 groups
 RS_GRID| Real space distribution along direction                              1
 RS_GRID| Border size                                                         37
 RS_GRID| Real space distribution over                                  7 groups
 RS_GRID| Real space distribution along direction                              2
 RS_GRID| Border size                                                         37
 RS_GRID|   Distribution                         Average         Max         Min
 RS_GRID|   Planes                                  90.5          91          90
 RS_GRID|   Distribution                         Average         Max         Min
 RS_GRID|   Planes                                  92.9          93          92

 RS_GRID| Information for grid number                                          3
 RS_GRID|   Bounds   1            -37      37                Points:          75
 RS_GRID|   Bounds   2            -37      37                Points:          75
 RS_GRID|   Bounds   3            -20      19                Points:          40
 RS_GRID| Real space fully replicated
 RS_GRID| Group size                                                           1

 RS_GRID| Information for grid number                                          4
 RS_GRID|   Bounds   1            -22      21                Points:          44
 RS_GRID|   Bounds   2            -22      21                Points:          44
 RS_GRID|   Bounds   3            -12      11                Points:          24
 RS_GRID| Real space fully replicated
 RS_GRID| Group size                                                           1

 DISTRIBUTION OF THE PARTICLES (ROWS)
              Process row      Number of particles         Number of matrix rows
                        0                       21                            -1
                        1                       21                            -1
                        2                       21                            -1
                        3                       21                            -1
                      Sum                       84                            -1

 DISTRIBUTION OF THE PARTICLES (COLUMNS)
              Process col      Number of particles      Number of matrix columns
                        0                        6                            -1
                        1                        6                            -1
                        2                        6                            -1
                        3                        6                            -1
                        4                        6                            -1
                        5                        6                            -1
                        6                        6                            -1
                        7                        6                            -1
                        8                        6                            -1
                        9                        6                            -1
                       10                        6                            -1
                       11                        6                            -1
                       12                        6                            -1
                       13                        6                            -1
                      Sum                       84                            -1

 *******************************************************************************
 ***                     STARTING   CELL   OPTIMIZATION                      ***
 ***                                 L-BFGS                                  ***
 *******************************************************************************

 --------------------------
 OPTIMIZATION STEP:      1
 --------------------------

 CELL| Volume [angstrom^3]:                                             1594.858
 CELL| Vector a [angstrom]:      15.351     0.000     0.000    |a| =      15.351
 CELL| Vector b [angstrom]:      -7.869    13.090     0.000    |b| =      15.273
 CELL| Vector c [angstrom]:      -0.102    -0.168     7.937    |c| =       7.940
 CELL| Angle (b,c), alpha [degree]:                                       90.658
 CELL| Angle (a,c), beta  [degree]:                                       90.738
 CELL| Angle (a,b), gamma [degree]:                                      121.011
 CELL| Numerically orthorhombic:                                              NO

 -------------------------------------------------------------------------------
 ----                             MULTIGRID INFO                            ----
 -------------------------------------------------------------------------------
 count for grid        1:         642432          cutoff [a.u.]          300.00
 count for grid        2:         495264          cutoff [a.u.]          100.00
 count for grid        3:         371392          cutoff [a.u.]           33.33
 count for grid        4:         128352          cutoff [a.u.]           11.11
 total gridlevel count  :        1637440

 PW_GRID| Information for grid number                                          5
 PW_GRID| Grid distributed over                                    56 processors
 PW_GRID| Real space group dimensions                                    56    1
 PW_GRID| the grid is blocked:                                                NO
 PW_GRID| Cutoff [a.u.]                                                    300.0
 PW_GRID| spherical cutoff:                                                   NO
 PW_GRID|   Bounds   1           -115     115                Points:         231
 PW_GRID|   Bounds   2           -112     112                Points:         225
 PW_GRID|   Bounds   3            -60      59                Points:         120
 PW_GRID| Volume element (a.u.^3)  0.1726E-02     Volume (a.u.^3)     10762.6338
 PW_GRID| Grid span                                                    FULLSPACE
 PW_GRID|   Distribution                         Average         Max         Min
 PW_GRID|   G-Vectors                           111375.0      111573      111342
 PW_GRID|   G-Rays                                 482.1         483         482
 PW_GRID|   Real Space Points                   111375.0      135000      108000

 PW_GRID| Information for grid number                                          6
 PW_GRID| Grid distributed over                                    56 processors
 PW_GRID| Real space group dimensions                                    56    1
 PW_GRID| the grid is blocked:                                                NO
 PW_GRID| Cutoff [a.u.]                                                    100.0
 PW_GRID| spherical cutoff:                                                   NO
 PW_GRID|   Bounds   1            -66      65                Points:         132
 PW_GRID|   Bounds   2            -66      65                Points:         132
 PW_GRID|   Bounds   3            -35      34                Points:          70
 PW_GRID| Volume element (a.u.^3)  0.8824E-02     Volume (a.u.^3)     10762.6338
 PW_GRID| Grid span                                                    FULLSPACE
 PW_GRID|   Distribution                         Average         Max         Min
 PW_GRID|   G-Vectors                            21780.0       22572       20856
 PW_GRID|   G-Rays                                 165.0         171         158
 PW_GRID|   Real Space Points                    21780.0       27720       18480

 PW_GRID| Information for grid number                                          7
 PW_GRID| Grid distributed over                                    56 processors
 PW_GRID| Real space group dimensions                                    56    1
 PW_GRID| the grid is blocked:                                                NO
 PW_GRID| Cutoff [a.u.]                                                     33.3
 PW_GRID| spherical cutoff:                                                   NO
 PW_GRID|   Bounds   1            -37      37                Points:          75
 PW_GRID|   Bounds   2            -37      37                Points:          75
 PW_GRID|   Bounds   3            -20      19                Points:          40
 PW_GRID| Volume element (a.u.^3)  0.4783E-01     Volume (a.u.^3)     10762.6338
 PW_GRID| Grid span                                                    FULLSPACE
 PW_GRID|   Distribution                         Average         Max         Min
 PW_GRID|   G-Vectors                             4017.9        4275        3750
 PW_GRID|   G-Rays                                  53.6          57          50
 PW_GRID|   Real Space Points                     4017.9        6000        3000

 PW_GRID| Information for grid number                                          8
 PW_GRID| Grid distributed over                                    56 processors
 PW_GRID| Real space group dimensions                                     7    8
 PW_GRID| the grid is blocked:                                                NO
 PW_GRID| Cutoff [a.u.]                                                     11.1
 PW_GRID| spherical cutoff:                                                   NO
 PW_GRID|   Bounds   1            -22      21                Points:          44
 PW_GRID|   Bounds   2            -22      21                Points:          44
 PW_GRID|   Bounds   3            -12      11                Points:          24
 PW_GRID| Volume element (a.u.^3)  0.2316         Volume (a.u.^3)     10762.6338
 PW_GRID| Grid span                                                    FULLSPACE
 PW_GRID|   Distribution                         Average         Max         Min
 PW_GRID|   G-Vectors                              829.7         968         704
 PW_GRID|   G-Rays                                  18.9          22          16
 PW_GRID|   Real Space Points                      829.7        1008         720

 POISSON| Solver                                                        PERIODIC
 POISSON| Periodicity                                                        XYZ

 RS_GRID| Information for grid number                                          5
 RS_GRID|   Bounds   1           -115     115                Points:         231
 RS_GRID|   Bounds   2           -112     112                Points:         225
 RS_GRID|   Bounds   3            -60      59                Points:         120
 RS_GRID| Real space distribution over                                  8 groups
 RS_GRID| Real space distribution along direction                              1
 RS_GRID| Border size                                                         41
 RS_GRID| Real space distribution over                                  7 groups
 RS_GRID| Real space distribution along direction                              2
 RS_GRID| Border size                                                         41
 RS_GRID|   Distribution                         Average         Max         Min
 RS_GRID|   Planes                                 110.9         111         110
 RS_GRID|   Distribution                         Average         Max         Min
 RS_GRID|   Planes                                 114.1         115         114

 RS_GRID| Information for grid number                                          6
 RS_GRID|   Bounds   1            -66      65                Points:         132
 RS_GRID|   Bounds   2            -66      65                Points:         132
 RS_GRID|   Bounds   3            -35      34                Points:          70
 RS_GRID| Real space distribution over                                  8 groups
 RS_GRID| Real space distribution along direction                              1
 RS_GRID| Border size                                                         37
 RS_GRID| Real space distribution over                                  7 groups
 RS_GRID| Real space distribution along direction                              2
 RS_GRID| Border size                                                         37
 RS_GRID|   Distribution                         Average         Max         Min
 RS_GRID|   Planes                                  90.5          91          90
 RS_GRID|   Distribution                         Average         Max         Min
 RS_GRID|   Planes                                  92.9          93          92

 RS_GRID| Information for grid number                                          7
 RS_GRID|   Bounds   1            -37      37                Points:          75
 RS_GRID|   Bounds   2            -37      37                Points:          75
 RS_GRID|   Bounds   3            -20      19                Points:          40
 RS_GRID| Real space fully replicated
 RS_GRID| Group size                                                           1

 RS_GRID| Information for grid number                                          8
 RS_GRID|   Bounds   1            -22      21                Points:          44
 RS_GRID|   Bounds   2            -22      21                Points:          44
 RS_GRID|   Bounds   3            -12      11                Points:          24
 RS_GRID| Real space fully replicated
 RS_GRID| Group size                                                           1

 DISTRIBUTION OF THE NEIGHBOR LISTS
              Total number of particle pairs:                              12147
              Total number of matrix elements:                           1466467
              Average number of particle pairs:                              217
              Maximum number of particle pairs:                              254
              Average number of matrix element:                            26187
              Maximum number of matrix elements:                           34424


 DISTRIBUTION OF THE OVERLAP MATRIX
              Number  of non-zero blocks:                                   3570
              Percentage non-zero blocks:                                 100.00
              Average number of blocks per CPU:                               64
              Maximum number of blocks per CPU:                               73
              Average number of matrix elements per CPU:                    8138
              Maximum number of matrix elements per CPU:                   10787

 Number of electrons:                                                        300
 Number of occupied orbitals:                                                150
 Number of molecular orbitals:                                               948

 Number of orbital functions:                                                948
 Number of independent orbital functions:                                    948

 Extrapolation method: initial_guess


 SCF WAVEFUNCTION OPTIMIZATION

  Step     Update method      Time    Convergence         Total energy    Change
  ------------------------------------------------------------------------------
     1 NoMix/Diag. 0.40E+00    0.6     1.11309212      -490.8524926169 -4.91E+02
     2 Broy./Diag. 0.40E+00    0.9     0.00766007      -493.7267931103 -2.87E+00
     3 Broy./Diag. 0.40E+00    0.9     0.00392670      -493.5015902215  2.25E-01
     4 Broy./Diag. 0.40E+00    0.9     0.00178938      -493.5146467309 -1.31E-02
     5 Broy./Diag. 0.40E+00    0.9     0.00038316      -493.4849616800  2.97E-02
     6 Broy./Diag. 0.40E+00    0.9     0.00014248      -493.4906738002 -5.71E-03
     7 Broy./Diag. 0.40E+00    0.9     0.00007318      -493.4932432399 -2.57E-03
     8 Broy./Diag. 0.40E+00    0.9     0.00005418      -493.4962331419 -2.99E-03
     9 Broy./Diag. 0.40E+00    0.9     0.00004658      -493.4964129110 -1.80E-04
    10 Broy./Diag. 0.40E+00    1.0     0.00001503      -493.4974059158 -9.93E-04
    11 Broy./Diag. 0.40E+00    1.0     0.00000878      -493.4984626376 -1.06E-03
    12 Broy./Diag. 0.40E+00    1.0     0.00000735      -493.4987536925 -2.91E-04
    13 Broy./Diag. 0.40E+00    1.0     0.00000340      -493.4986846502  6.90E-05
    14 Broy./Diag. 0.40E+00    1.0     0.00000254      -493.4986341772  5.05E-05
    15 Broy./Diag. 0.40E+00    1.0     0.00000084      -493.4986252202  8.96E-06

  *** SCF run converged in    15 steps ***


  Electronic density on regular grids:       -299.9999999804        0.0000000196
  Core density on regular grids:              299.9999999774       -0.0000000226
  Total charge density on r-space grids:       -0.0000000029
  Total charge density g-space grids:          -0.0000000029

  Overlap energy of the core charge distribution:               0.00002167607408
  Self energy of the core charge distribution:              -1200.14003059453580
  Core Hamiltonian energy:                                    363.14825944226448
  Hartree energy:                                             482.12646182389017
  Exchange-correlation energy:                               -138.42029483557243
  Dispersion energy:                                           -0.21304273235123
  Electronic entropic energy:                                  -0.00000000000000
  Fermi energy:                                                -0.00096988230774

  Total energy:                                              -493.49862522023079

 ENERGY| Total FORCE_EVAL ( QS ) energy (a.u.):             -493.498630808295161


 CELL| Volume [angstrom^3]:                                             1591.345
 CELL| Vector a [angstrom]:      15.333     0.000     0.000    |a| =      15.333
 CELL| Vector b [angstrom]:      -7.863    13.081     0.000    |b| =      15.262
 CELL| Vector c [angstrom]:      -0.101    -0.166     7.934    |c| =       7.936
 CELL| Angle (b,c), alpha [degree]:                                       90.653
 CELL| Angle (a,c), beta  [degree]:                                       90.732
 CELL| Angle (a,b), gamma [degree]:                                      121.008
 CELL| Numerically orthorhombic:                                              NO

 -------------------------------------------------------------------------------
 ----                             MULTIGRID INFO                            ----
 -------------------------------------------------------------------------------
 count for grid        1:         651223          cutoff [a.u.]          300.00
 count for grid        2:         507370          cutoff [a.u.]          100.00
 count for grid        3:         394201          cutoff [a.u.]           33.33
 count for grid        4:         145959          cutoff [a.u.]           11.11
 total gridlevel count  :        1698753

 PW_GRID| Information for grid number                                          9
 PW_GRID| Grid distributed over                                    56 processors
 PW_GRID| Real space group dimensions                                    56    1
 PW_GRID| the grid is blocked:                                                NO
 PW_GRID| Cutoff [a.u.]                                                    300.0
 PW_GRID| spherical cutoff:                                                   NO
 PW_GRID|   Bounds   1           -112     112                Points:         225
 PW_GRID|   Bounds   2           -112     112                Points:         225
 PW_GRID|   Bounds   3            -60      59                Points:         120
 PW_GRID| Volume element (a.u.^3)  0.1768E-02     Volume (a.u.^3)     10738.9257
 PW_GRID| Grid span                                                    FULLSPACE
 PW_GRID|   Distribution                         Average         Max         Min
 PW_GRID|   G-Vectors                           108482.1      108675      108450
 PW_GRID|   G-Rays                                 482.1         483         482
 PW_GRID|   Real Space Points                   108482.1      135000      108000

 PW_GRID| Information for grid number                                         10
 PW_GRID| Grid distributed over                                    56 processors
 PW_GRID| Real space group dimensions                                    56    1
 PW_GRID| the grid is blocked:                                                NO
 PW_GRID| Cutoff [a.u.]                                                    100.0
 PW_GRID| spherical cutoff:                                                   NO
 PW_GRID|   Bounds   1            -66      65                Points:         132
 PW_GRID|   Bounds   2            -66      65                Points:         132
 PW_GRID|   Bounds   3            -35      34                Points:          70
 PW_GRID| Volume element (a.u.^3)  0.8805E-02     Volume (a.u.^3)     10738.9257
 PW_GRID| Grid span                                                    FULLSPACE
 PW_GRID|   Distribution                         Average         Max         Min
 PW_GRID|   G-Vectors                            21780.0       22572       20856
 PW_GRID|   G-Rays                                 165.0         171         158
 PW_GRID|   Real Space Points                    21780.0       27720       18480

 PW_GRID| Information for grid number                                         11
 PW_GRID| Grid distributed over                                    56 processors
 PW_GRID| Real space group dimensions                                    56    1
 PW_GRID| the grid is blocked:                                                NO
 PW_GRID| Cutoff [a.u.]                                                     33.3
 PW_GRID| spherical cutoff:                                                   NO
 PW_GRID|   Bounds   1            -37      37                Points:          75
 PW_GRID|   Bounds   2            -37      37                Points:          75
 PW_GRID|   Bounds   3            -20      19                Points:          40
 PW_GRID| Volume element (a.u.^3)  0.4773E-01     Volume (a.u.^3)     10738.9257
 PW_GRID| Grid span                                                    FULLSPACE
 PW_GRID|   Distribution                         Average         Max         Min
 PW_GRID|   G-Vectors                             4017.9        4275        3750
 PW_GRID|   G-Rays                                  53.6          57          50
 PW_GRID|   Real Space Points                     4017.9        6000        3000

 PW_GRID| Information for grid number                                         12
 PW_GRID| Grid distributed over                                    56 processors
 PW_GRID| Real space group dimensions                                     7    8
 PW_GRID| the grid is blocked:                                                NO
 PW_GRID| Cutoff [a.u.]                                                     11.1
 PW_GRID| spherical cutoff:                                                   NO
 PW_GRID|   Bounds   1            -22      21                Points:          44
 PW_GRID|   Bounds   2            -22      21                Points:          44
 PW_GRID|   Bounds   3            -12      11                Points:          24
 PW_GRID| Volume element (a.u.^3)  0.2311         Volume (a.u.^3)     10738.9257
 PW_GRID| Grid span                                                    FULLSPACE
 PW_GRID|   Distribution                         Average         Max         Min
 PW_GRID|   G-Vectors                              829.7         968         704
 PW_GRID|   G-Rays                                  18.9          22          16
 PW_GRID|   Real Space Points                      829.7        1008         720

 POISSON| Solver                                                        PERIODIC
 POISSON| Periodicity                                                        XYZ

 RS_GRID| Information for grid number                                          9
 RS_GRID|   Bounds   1           -112     112                Points:         225
 RS_GRID|   Bounds   2           -112     112                Points:         225
 RS_GRID|   Bounds   3            -60      59                Points:         120
 RS_GRID| Real space distribution over                                  7 groups
 RS_GRID| Real space distribution along direction                              1
 RS_GRID| Border size                                                         40
 RS_GRID| Real space distribution over                                  8 groups
 RS_GRID| Real space distribution along direction                              2
 RS_GRID| Border size                                                         40
 RS_GRID|   Distribution                         Average         Max         Min
 RS_GRID|   Planes                                 112.1         113         112
 RS_GRID|   Distribution                         Average         Max         Min
 RS_GRID|   Planes                                 108.1         109         108

[...]
 Number of occupied orbitals:                                                150
 Number of molecular orbitals:                                               948

 Number of orbital functions:                                                948
 Number of independent orbital functions:                                    948

 Parameters for the always stable predictor-corrector (ASPC) method:

  ASPC order: 3

  B(1) =   3.000000
  B(2) =  -3.428571
  B(3) =   1.928571
  B(4) =  -0.571429
  B(5) =   0.071429

 Extrapolation method: ASPC


 SCF WAVEFUNCTION OPTIMIZATION

  Step     Update method      Time    Convergence         Total energy    Change
  ------------------------------------------------------------------------------
     1 Broy./Diag. 0.40E+00    0.7     0.00000196      -493.7061746373 -4.94E+02
     2 Broy./Diag. 0.40E+00    1.1     0.00000100      -493.7061689663  5.67E-06

  *** SCF run converged in     2 steps ***


  Electronic density on regular grids:       -299.9999999803        0.0000000197
  Core density on regular grids:              299.9999999774       -0.0000000226
  Total charge density on r-space grids:       -0.0000000029
  Total charge density g-space grids:          -0.0000000029

  Overlap energy of the core charge distribution:               0.00002167716457
  Self energy of the core charge distribution:              -1200.14003059453580
  Core Hamiltonian energy:                                    364.56428944885863
  Hartree energy:                                             481.05601874743479
  Exchange-correlation energy:                               -138.92825696109196
  Dispersion energy:                                           -0.25821128409515
  Electronic entropic energy:                                  -0.00000000000000
  Fermi energy:                                                 0.03995572969041

  Total energy:                                              -493.70616896626495
  
  Eigenvalues of the occupied subspace spin            1
 ---------------------------------------------
      -0.85928266      -0.85799925      -0.85740474      -0.85638058
      -0.85623659      -0.85509035      -0.78953309      -0.78847967
      -0.78806022      -0.78732058      -0.78673681      -0.78614593
      -0.65632872      -0.64908367      -0.62542207      -0.62022482
      -0.61896625      -0.61686946      -0.61580853      -0.61483154
      -0.55366918      -0.55318357      -0.54849424      -0.54763467
      -0.54722950      -0.54561114      -0.52593777      -0.52484379
      -0.52242623      -0.52143954      -0.51130665      -0.51029546
      -0.48972936      -0.48833198      -0.48761250      -0.48557399
      -0.43108684      -0.43083534      -0.41395868      -0.41294104
      -0.41245603      -0.41182710      -0.40080714      -0.39999511
      -0.39989999      -0.39912798      -0.39266890      -0.39118322
      -0.39078543      -0.39033654      -0.37747641      -0.37733174
      -0.36736152      -0.36620526      -0.33804242      -0.33791647
      -0.33733805      -0.33651209      -0.33114305      -0.33103595
      -0.31290889      -0.31242827      -0.31193544      -0.31121150
      -0.30168528      -0.30073914      -0.28408262      -0.28371322
      -0.28288962      -0.28242491      -0.27886725      -0.27416181
      -0.27353921      -0.27134417      -0.26847542      -0.26218513
      -0.26172307      -0.24668408      -0.24578724      -0.24507276
      -0.24392453      -0.24366758      -0.24274978      -0.24086272
      -0.23212609      -0.23146785      -0.22637753      -0.22574017
      -0.22205105      -0.21722415      -0.21682169      -0.21645191
      -0.21589220      -0.21571761      -0.21532480      -0.20940624
      -0.20931242      -0.20004517      -0.19911842      -0.19831229
      -0.19743362      -0.18960859      -0.18073334      -0.17711784
      -0.17607143      -0.17479787      -0.17176803      -0.17164998
      -0.17137275      -0.17105219      -0.16912105      -0.16845524
      -0.16570597      -0.16320317      -0.16183643      -0.16133095
      -0.16110666      -0.16083221      -0.15993710      -0.15982274
      -0.15596447      -0.15195128      -0.15075953      -0.14801103
      -0.14559107      -0.13584217      -0.13472863      -0.13417146
      -0.13370206      -0.13210335      -0.12886191      -0.12859939
      -0.12838808      -0.12777939      -0.10473546      -0.10159459
      -0.09450243      -0.09036119      -0.08634820      -0.08317653
      -0.07590946      -0.07097615      -0.06510266      -0.06168149
      -0.05215874      -0.04497749      -0.03857648      -0.02786072
      -0.02335481      -0.01305321
 Fermi Energy [eV] :    1.087251
  
  Lowest eigenvalues of the unoccupied subspace spin            1
 ---------------------------------------------
       0.07025276

 ENERGY| Total FORCE_EVAL ( QS ) energy (a.u.):             -493.706168966264954


 -------------------------------------------------------------------------------
 -                                                                             -
 -                                DBCSR STATISTICS                             -
 -                                                                             -
 -------------------------------------------------------------------------------
 COUNTER                                    TOTAL       BLAS       SMM       ACC
 flops     5 x    20 x     5            261144000     100.0%      0.0%      0.0%
 flops     5 x     5 x    52           1102608000     100.0%      0.0%      0.0%
 flops     5 x     5 x    64           1357056000     100.0%      0.0%      0.0%
 flops     5 x    20 x    13           2489572800     100.0%      0.0%      0.0%
 flops    13 x    20 x     5           2489572800     100.0%      0.0%      0.0%
 flops    13 x     5 x    52           9941526400     100.0%      0.0%      0.0%
 flops     5 x    13 x    52           9975056000     100.0%      0.0%      0.0%
 flops     5 x    32 x     5          12117081600     100.0%      0.0%      0.0%
 flops    13 x     5 x    64          12235724800     100.0%      0.0%      0.0%
 flops     5 x    13 x    64          12276992000     100.0%      0.0%      0.0%
 flops     5 x     5 x    32          17641728000     100.0%      0.0%      0.0%
 flops    13 x    20 x    13          23733927360     100.0%      0.0%      0.0%
 flops    13 x    13 x    52          96374129280     100.0%      0.0%      0.0%
 flops     5 x    32 x    13         115516177920     100.0%      0.0%      0.0%
 flops    13 x    32 x     5         115516177920     100.0%      0.0%      0.0%
 flops    13 x    13 x    64         118614312960     100.0%      0.0%      0.0%
 flops    13 x     5 x    32         159064422400     100.0%      0.0%      0.0%
 flops     5 x    13 x    32         159600896000     100.0%      0.0%      0.0%
 flops    13 x    32 x    13        1101254229504     100.0%      0.0%      0.0%
 flops    13 x    13 x    32        1541986068480     100.0%      0.0%      0.0%
 flops inhomo. stacks                           0       0.0%      0.0%      0.0%
 flops total                         3.513548E+12     100.0%      0.0%      0.0%
 flops max/rank                     82.863815E+09     100.0%      0.0%      0.0%
 matmuls inhomo. stacks                         0       0.0%      0.0%      0.0%
 matmuls total                          418514880     100.0%      0.0%      0.0%
 number of processed stacks              17811360     100.0%      0.0%      0.0%
 average stack size                                    23.5       0.0       0.0
 marketing flops                     2.042026E+12
 -------------------------------------------------------------------------------
 # multiplications                           3286
 max memory usage/rank             379.736064E+06
 # max total images/rank                        7
 # max 3D layers                                1
 # MPI messages exchanged                21529872
 MPI messages size (bytes):
  total size                       614.056395E+09
  min size                          11.776000E+03
  max size                         127.488000E+03
  average size                      28.521135E+03
 MPI breakdown and total messages size (bytes):
             size <=      128                   0                        0
       128 < size <=     8192                   0                        0
      8192 < size <=    32768            16519776             298642163456
     32768 < size <=   131072             5010096             315611236096
    131072 < size <=  4194304                   0                        0
   4194304 < size <= 16777216                   0                        0
  16777216 < size                               0                        0
 -------------------------------------------------------------------------------

 *** WARNING in dbcsr/mm/dbcsr_mm.F:267 :: Using a non-square number of ***
 *** MPI ranks might lead to poor performance.                          ***
 *** Used ranks: 56                                                     ***
 *** Suggested: 49 121                                                  ***

 -------------------------------------------------------------------------------
 
 MEMORY| Estimated peak process memory [MiB]                                 370

 -------------------------------------------------------------------------------
 ----                             MULTIGRID INFO                            ----
 -------------------------------------------------------------------------------
 count for grid        1:         662478          cutoff [a.u.]          300.00
 count for grid        2:         524064          cutoff [a.u.]          100.00
 count for grid        3:         425240          cutoff [a.u.]           33.33
 count for grid        4:         171704          cutoff [a.u.]           11.11
 total gridlevel count  :        1783486

 -------------------------------------------------------------------------------
 -                                                                             -
 -                         MESSAGE PASSING PERFORMANCE                         -
 -                                                                             -
 -------------------------------------------------------------------------------

 ROUTINE             CALLS      AVE VOLUME [Bytes]
 MP_Group             3780
 MP_Bcast             7464                 102979.
 MP_Allreduce        61265                   1437.
 MP_Sync              2973
 MP_Alltoall        137680                1504363.
 MP_SendRecv         35860                   1336.
 MP_ISendRecv       749595                  89245.
 MP_Wait           1284071
 MP_comm_split        2317
 MP_ISend           906238                 107841.
 MP_IRecv           899542                 108382.
 MP_Recv              4756                 242688.
 MP_Memory          833156
 -------------------------------------------------------------------------------


 -------------------------------------------------------------------------------
 -                                                                             -
 -                           R E F E R E N C E S                               -
 -                                                                             -
 -------------------------------------------------------------------------------
 
 CP2K version 5.1, the CP2K developers group (2017).
 CP2K is freely available from https://www.cp2k.org/ .

 Schuett, Ole; Messmer, Peter; Hutter, Juerg; VandeVondele, Joost. 
 Electronic Structure Calculations on Graphics Processing Units, John Wiley & Sons, Ltd, 173-190 (2016). 
 GPU-Accelerated Sparse Matrix-Matrix Multiplication for Linear Scaling Density Functional Theory.
 http://dx.doi.org/10.1002/9781118670712.ch8


 Borstnik, U; VandeVondele, J; Weber, V; Hutter, J. 
 PARALLEL COMPUTING, 40 (5-6), 47-58 (2014). 
 Sparse matrix multiplication: The distributed block-compressed sparse
 row library.
 http://dx.doi.org/10.1016/j.parco.2014.03.012


 Hutter, J; Iannuzzi, M; Schiffmann, F; VandeVondele, J. 
 WILEY INTERDISCIPLINARY REVIEWS-COMPUTATIONAL MOLECULAR SCIENCE, 4 (1), 15-25 (2014). 
 CP2K: atomistic simulations of condensed matter systems.
 http://dx.doi.org/10.1002/wcms.1159


 Grimme, S; Ehrlich, S; Goerigk, L. 
 JOURNAL OF COMPUTATIONAL CHEMISTRY, 32, 1456 (2011). 
 Effect of the damping function in dispersion corrected density functional theory.
 http://dx.doi.org/10.1002/jcc.21759


 Grimme, S; Antony, J; Ehrlich, S; Krieg, H. 
 JOURNAL OF CHEMICAL PHYSICS, 132 (15), 154104 (2010). 
 A consistent and accurate ab initio parametrization of density
 functional dispersion correction (DFT-D) for the 94 elements H-Pu.
 http://dx.doi.org/10.1063/1.3382344


 VandeVondele, J; Hutter, J. 
 JOURNAL OF CHEMICAL PHYSICS, 127 (11), 114105 (2007). 
 Gaussian basis sets for accurate calculations on molecular systems in
 gas and condensed phases.
 http://dx.doi.org/10.1063/1.2770708


 Krack, M. 
 THEORETICAL CHEMISTRY ACCOUNTS, 114 (1-3), 145-152 (2005). 
 Pseudopotentials for H to Kr optimized for gradient-corrected
 exchange-correlation functionals.
 http://dx.doi.org/10.1007/s00214-005-0655-y


 VandeVondele, J; Krack, M; Mohamed, F; Parrinello, M; Chassaing, T;
 Hutter, J. COMPUTER PHYSICS COMMUNICATIONS, 167 (2), 103-128 (2005). 
 QUICKSTEP: Fast and accurate density functional calculations using a
 mixed Gaussian and plane waves approach.
 http://dx.doi.org/10.1016/j.cpc.2004.12.014


 Frigo, M; Johnson, SG. 
 PROCEEDINGS OF THE IEEE, 93 (2), 216-231 (2005). 
 The design and implementation of FFTW3.
 http://dx.doi.org/10.1109/JPROC.2004.840301


 Kolafa, J. 
 JOURNAL OF COMPUTATIONAL CHEMISTRY, 25 (3), 335-342 (2004). 
 Time-reversible always stable predictor-corrector method for molecular dynamics of polarizable molecules.
 http://dx.doi.org/10.1002/jcc.10385


 Hartwigsen, C; Goedecker, S; Hutter, J. 
 PHYSICAL REVIEW B, 58 (7), 3641-3662 (1998). 
 Relativistic separable dual-space Gaussian pseudopotentials from H to Rn.
 http://dx.doi.org/10.1103/PhysRevB.58.3641


 Lippert, G; Hutter, J; Parrinello, M. 
 MOLECULAR PHYSICS, 92 (3), 477-487 (1997). 
 A hybrid Gaussian and plane wave density functional scheme.
 http://dx.doi.org/10.1080/002689797170220


 Perdew, JP; Burke, K; Ernzerhof, M. 
 PHYSICAL REVIEW LETTERS, 77 (18), 3865-3868 (1996). 
 Generalized gradient approximation made simple.
 http://dx.doi.org/10.1103/PhysRevLett.77.3865


 Goedecker, S; Teter, M; Hutter, J. 
 PHYSICAL REVIEW B, 54 (3), 1703-1710 (1996). 
 Separable dual-space Gaussian pseudopotentials.
 http://dx.doi.org/10.1103/PhysRevB.54.1703


 BYRD, RH; LU, PH; NOCEDAL, J; ZHU, CY. 
 SIAM JOURNAL ON SCIENTIFIC COMPUTING, 16 (5), 1190-1208 (1995). 
 A LIMITED MEMORY ALGORITHM FOR BOUND CONSTRAINED OPTIMIZATION.
 http://dx.doi.org/10.1137/0916069


 -------------------------------------------------------------------------------
 -                                                                             -
 -                                T I M I N G                                  -
 -                                                                             -
 -------------------------------------------------------------------------------
 SUBROUTINE                       CALLS  ASD         SELF TIME        TOTAL TIME
                                MAXIMUM       AVERAGE  MAXIMUM  AVERAGE  MAXIMUM
 CP2K                                 1  1.0    0.052    0.068 2537.831 2537.834
 cp_cell_opt                          1  2.0    0.008    0.014 2537.225 2537.229
 geoopt_lbfgs                         1  3.0    0.002    0.007 2537.217 2537.222
 cp_eval_at                         164  5.0    0.026    0.041 2536.535 2536.543
 cp_opt_gopt_step                   154  4.0    0.014    0.034 2534.221 2534.227
 qs_forces                          163  6.0    0.028    0.038 2533.485 2533.501
 qs_energies                        164  7.0    0.026    0.037 2377.195 2377.239
 scf_env_do_scf                     164  8.0    0.023    0.041 2254.246 2255.902
 scf_env_do_scf_inner_loop         2153  9.0    0.090    0.158 2253.774 2255.423
 rebuild_ks_matrix                 2316 10.8    0.008    0.011 1294.867 1294.903
 qs_ks_build_kohn_sham_matrix      2316 11.8    0.296    0.315 1294.859 1294.895
 qs_ks_update_qs_env               2153 10.0    0.020    0.025 1162.949 1162.989
 qs_rho_update_rho                 2317 10.1    0.015    0.018  786.441  786.595
 calculate_rho_elec                2317 11.1  439.977  456.223  786.426  786.580
 sum_up_and_integrate              2316 12.8    2.353    2.383  742.305  742.785
 integrate_v_rspace                2316 13.8  429.481  439.140  739.948  740.429
 pw_transfer                      46162 14.3    3.019    3.251  591.465  599.191
 fft_wrap_pw1pw2                  41530 15.4    0.369    0.404  583.868  591.482
 fft_wrap_pw1pw2_300              27631 16.4   32.994   33.775  554.873  562.532
 fft3d_ps                         41530 17.4  253.714  257.567  498.510  506.427
 rs_pw_transfer                   18859 14.4    0.194    0.249  446.753  470.658
 qs_vxc_create                     2316 12.8    0.059    0.066  469.094  469.702
 xc_vxc_pw_create                  2316 13.8   19.033   20.036  469.035  469.647
 density_rs2pw                     2317 12.1    0.123    0.145  308.571  332.405
 potential_pw2rs                   2316 14.8    0.213    0.238  290.781  291.373
 qs_scf_new_mos                    2153 10.0    0.061    0.101  252.007  252.532
 xc_rho_set_and_dset_create        2316 14.8    2.412    2.472  246.291  248.839
 eigensolver                       2153 11.0    0.124    0.198  217.564  217.851
 mp_alltoall_z22v                 41530 19.4  206.933  212.820  206.933  212.820
 cp_fm_syevd                       2317 12.1  139.830  193.727  195.145  196.396
 cp_fm_syevd_base                  2317 13.1   53.139  186.783   53.139  186.783
 rs_pw_transfer_PW2RS_300          2479 16.5  108.878  113.342  172.116  182.062
 rs_pw_transfer_RS2PW_300          2481 13.9  102.955  113.905  153.835  176.966
 x_to_yz                          20518 18.6   23.825   25.126  134.588  136.669
 qs_ks_update_qs_env_forces         163  7.0    0.001    0.001  132.519  132.521
 mp_waitany                       86350 16.2   88.718  125.860   88.718  125.860
 yz_to_x                          16379 18.2   11.915   12.383  107.929  113.361
 gspace_mixing                     1989 10.0    1.042    1.051  105.535  105.542
 init_scf_run                       164  8.0    0.010    0.018   94.866   94.892
 scf_env_initial_rho_setup          164  9.0    0.004    0.011   93.035   93.078
 wfi_extrapolate                    164 10.0    0.025    0.047   89.866   89.898
 xc_functional_eval                2316 15.8    0.027    0.033   84.002   86.692
 pbe_lda_eval                      2316 16.8   83.975   86.666   83.975   86.666
 mp_waitall_1                   1197721 16.4   72.683   85.704   72.683   85.704
 broyden_mixing                    1989 11.0   60.993   61.677   63.389   63.679
 rs_pw_transfer_PW2RS_100          2316 16.8   20.915   23.971   49.923   54.722
 rs_grid_zero                     12046 13.2   53.803   54.092   53.803   54.092
 -------------------------------------------------------------------------------

 The number of warnings for this run is : 2
 
 -------------------------------------------------------------------------------
  **** **** ******  **  PROGRAM ENDED AT                 2019-02-20 01:45:00.739
 ***** ** ***  *** **   PROGRAM RAN ON                                      f062
 **    ****   ******    PROGRAM RAN BY                                    ongari
 ***** **    ** ** **   PROGRAM PROCESS ID                                  7468
  **** **  *******  **  PROGRAM STOPPED IN /scratch/ongari/aiida_run/64/ed/4ca8-
                                           c71c-41d5-96e5-ae6136b67d1e
