 DBCSR| Multiplication driver                                               BLAS
 DBCSR| Multrec recursion limit                                              512
 DBCSR| Multiplication stack size                                           1000
 DBCSR| Maximum elements for images                                    UNLIMITED
 DBCSR| Multiplicative factor virtual images                                   1
 DBCSR| Multiplication size stacks                                             3
 DBCSR| Number of 3D layers                                               SINGLE
 DBCSR| Use MPI memory allocation                                              T
 DBCSR| Use RMA algorithm                                                      F
 DBCSR| Use Communication thread                                               T
 DBCSR| Communication thread load                                             87


  **** **** ******  **  PROGRAM STARTED AT               2018-10-11 09:45:06.177
 ***** ** ***  *** **   PROGRAM STARTED ON                                  g013
 **    ****   ******    PROGRAM STARTED BY                                ongari
 ***** **    ** ** **   PROGRAM PROCESS ID                                 15060
  **** **  *******  **  PROGRAM STARTED IN /scratch/ongari/proj44_studycases/CEL
                                           LOPT/1_ENERGY

 CP2K| version string:                                          CP2K version 5.1
 CP2K| source code revision number:                                    svn:18091
 CP2K| cp2kflags: libint fftw3 pexsi parallel mpi3 scalapack libderiv_max_am1=5 
 CP2K|            libint_max_am=6
 CP2K| is freely available from                            https://www.cp2k.org/
 CP2K| Program compiled at                          Thu Jul 5 10:57:58 CEST 2018
 CP2K| Program compiled on                                                  g005
 CP2K| Program compiled for                  linux-rhel7-x86_S6g1_Mellanox-intel
 CP2K| Data directory path    /dev/shm/scitasbuild/spack-stage/spack-stage-Kdd_n
 CP2K| Input file name                                           cp2k_energy.inp
 
 GLOBAL| Force Environment number                                              1
 GLOBAL| Basis set file name            /scratch/ongari/0_LIBRARIES/0_cp2k/BASIS
 GLOBAL| Potential file name            /scratch/ongari/0_LIBRARIES/0_cp2k/GTH_P
 GLOBAL| MM Potential file name                                     MM_POTENTIAL
 GLOBAL| Coordinate file name                                      __STD_INPUT__
 GLOBAL| Method name                                                        CP2K
 GLOBAL| Project name                                                       cp2k
 GLOBAL| Preferred FFT library                                             FFTW3
 GLOBAL| Preferred diagonalization lib.                                       SL
 GLOBAL| Run type                                                         ENERGY
 GLOBAL| All-to-all communication in single precision                          F
 GLOBAL| FFTs using library dependent lengths                                  F
 GLOBAL| Global print level                                               MEDIUM
 GLOBAL| Total number of message passing processes                            49
 GLOBAL| Number of threads for this process                                    1
 GLOBAL| This output is from process                                           0
 GLOBAL| CPU model name :  Intel(R) Xeon(R) Gold 6132 CPU @ 2.60GHz

 MEMORY| system memory details [Kb]
 MEMORY|                        rank 0           min           max       average
 MEMORY| MemTotal            197738988     197738988     197738988     197738988
 MEMORY| MemFree             178051656     178051656     179424344     178723992
 MEMORY| Buffers                  2400           828          2400          1630
 MEMORY| Cached                 247872        233640        247872        240576
 MEMORY| Slab                  3460728       2396112       3460728       2939283
 MEMORY| SReclaimable          1373348        962236       1373348       1171987
 MEMORY| MemLikelyFree       179675276     179674612     180621048     180138186


 *** Fundamental physical constants (SI units) ***

 *** Literature: B. J. Mohr and B. N. Taylor,
 ***             CODATA recommended values of the fundamental physical
 ***             constants: 2006, Web Version 5.1
 ***             http://physics.nist.gov/constants

 Speed of light in vacuum [m/s]                             2.99792458000000E+08
 Magnetic constant or permeability of vacuum [N/A**2]       1.25663706143592E-06
 Electric constant or permittivity of vacuum [F/m]          8.85418781762039E-12
 Planck constant (h) [J*s]                                  6.62606896000000E-34
 Planck constant (h-bar) [J*s]                              1.05457162825177E-34
 Elementary charge [C]                                      1.60217648700000E-19
 Electron mass [kg]                                         9.10938215000000E-31
 Electron g factor [ ]                                     -2.00231930436220E+00
 Proton mass [kg]                                           1.67262163700000E-27
 Fine-structure constant                                    7.29735253760000E-03
 Rydberg constant [1/m]                                     1.09737315685270E+07
 Avogadro constant [1/mol]                                  6.02214179000000E+23
 Boltzmann constant [J/K]                                   1.38065040000000E-23
 Atomic mass unit [kg]                                      1.66053878200000E-27
 Bohr radius [m]                                            5.29177208590000E-11

 *** Conversion factors ***

 [u] -> [a.u.]                                              1.82288848426455E+03
 [Angstrom] -> [Bohr] = [a.u.]                              1.88972613288564E+00
 [a.u.] = [Bohr] -> [Angstrom]                              5.29177208590000E-01
 [a.u.] -> [s]                                              2.41888432650478E-17
 [a.u.] -> [fs]                                             2.41888432650478E-02
 [a.u.] -> [J]                                              4.35974393937059E-18
 [a.u.] -> [N]                                              8.23872205491840E-08
 [a.u.] -> [K]                                              3.15774647902944E+05
 [a.u.] -> [kJ/mol]                                         2.62549961709828E+03
 [a.u.] -> [kcal/mol]                                       6.27509468713739E+02
 [a.u.] -> [Pa]                                             2.94210107994716E+13
 [a.u.] -> [bar]                                            2.94210107994716E+08
 [a.u.] -> [atm]                                            2.90362800883016E+08
 [a.u.] -> [eV]                                             2.72113838565563E+01
 [a.u.] -> [Hz]                                             6.57968392072181E+15
 [a.u.] -> [1/cm] (wave numbers)                            2.19474631370540E+05
 [a.u./Bohr**2] -> [1/cm]                                   5.14048714338585E+03
 

 CELL_TOP| Volume [angstrom^3]:                                         9656.654
 CELL_TOP| Vector a [angstrom    29.287     0.000     0.000    |a| =      29.287
 CELL_TOP| Vector b [angstrom   -14.644    25.363     0.000    |b| =      29.287
 CELL_TOP| Vector c [angstrom     0.000     0.000    13.000    |c| =      13.000
 CELL_TOP| Angle (b,c), alpha [degree]:                                   90.000
 CELL_TOP| Angle (a,c), beta  [degree]:                                   90.000
 CELL_TOP| Angle (a,b), gamma [degree]:                                  120.000
 CELL_TOP| Numerically orthorhombic:                                          NO
 
 GENERATE|  Preliminary Number of Bonds generated:                             0
 GENERATE|  Achieved consistency in connectivity generation.

 CELL| Volume [angstrom^3]:                                             9656.654
 CELL| Vector a [angstrom]:      29.287     0.000     0.000    |a| =      29.287
 CELL| Vector b [angstrom]:     -14.644    25.363     0.000    |b| =      29.287
 CELL| Vector c [angstrom]:       0.000     0.000    13.000    |c| =      13.000
 CELL| Angle (b,c), alpha [degree]:                                       90.000
 CELL| Angle (a,c), beta  [degree]:                                       90.000
 CELL| Angle (a,b), gamma [degree]:                                      120.000
 CELL| Numerically orthorhombic:                                              NO

 CELL_REF| Volume [angstrom^3]:                                         9656.654
 CELL_REF| Vector a [angstrom    29.287     0.000     0.000    |a| =      29.287
 CELL_REF| Vector b [angstrom   -14.644    25.363     0.000    |b| =      29.287
 CELL_REF| Vector c [angstrom     0.000     0.000    13.000    |c| =      13.000
 CELL_REF| Angle (b,c), alpha [degree]:                                   90.000
 CELL_REF| Angle (a,c), beta  [degree]:                                   90.000
 CELL_REF| Angle (a,b), gamma [degree]:                                  120.000
 CELL_REF| Numerically orthorhombic:                                          NO

 *******************************************************************************
 *******************************************************************************
 **                                                                           **
 **     #####                         ##              ##                      **
 **    ##   ##            ##          ##              ##                      **
 **   ##     ##                       ##            ######                    **
 **   ##     ##  ##   ##  ##   #####  ##  ##   ####   ##    #####    #####    **
 **   ##     ##  ##   ##  ##  ##      ## ##   ##      ##   ##   ##  ##   ##   **
 **   ##  ## ##  ##   ##  ##  ##      ####     ###    ##   ######   ######    **
 **    ##  ###   ##   ##  ##  ##      ## ##      ##   ##   ##       ##        **
 **     #######   #####   ##   #####  ##  ##  ####    ##    #####   ##        **
 **           ##                                                    ##        **
 **                                                                           **
 **                                                ... make the atoms dance   **
 **                                                                           **
 **            Copyright (C) by CP2K developers group (2000 - 2017)           **
 **                                                                           **
 *******************************************************************************

 DFT| Spin restricted Kohn-Sham (RKS) calculation                            RKS
 DFT| Multiplicity                                                             1
 DFT| Number of spin states                                                    1
 DFT| Charge                                                                   0
 DFT| Self-interaction correction (SIC)                                       NO
 DFT| Cutoffs: density                                              1.000000E-10
 DFT|          gradient                                             1.000000E-10
 DFT|          tau                                                  1.000000E-10
 DFT|          cutoff_smoothing_range                               0.000000E+00
 DFT| XC density smoothing                                                  NONE
 DFT| XC derivatives                                                          PW
 FUNCTIONAL| ROUTINE=NEW
 FUNCTIONAL| PBE:
 FUNCTIONAL| J.P.Perdew, K.Burke, M.Ernzerhof, Phys. Rev. Letter, vol. 77, n 18,
 FUNCTIONAL|  pp. 3865-3868, (1996){spin unpolarized}                           
 vdW POTENTIAL|                                                   Pair Potential
 vdW POTENTIAL|          DFT-D3 (Version 3.1)
 vdW POTENTIAL|          Potential Form: S. Grimme et al, JCP 132: 154104 (2010)
 vdW POTENTIAL|          BJ Damping: S. Grimme et al, JCC 32: 1456 (2011)
 vdW POTENTIAL|          Cutoff Radius [Bohr]:                             20.00
 vdW POTENTIAL|          s6 Scaling Factor:                               1.0000
 vdW POTENTIAL|          a1 Damping Factor:                               0.4289
 vdW POTENTIAL|          s8 Scaling Factor:                               0.7875
 vdW POTENTIAL|          a2 Damping Factor:                               4.4407
 vdW POTENTIAL|          Cutoff for CN calculation:                   0.1000E-05

 QS| Method:                                                                 GPW
 QS| Density plane wave grid type                        NON-SPHERICAL FULLSPACE
 QS| Number of grid levels:                                                    4
 QS| Density cutoff [a.u.]:                                                300.0
 QS| Multi grid cutoff [a.u.]: 1) grid level                               300.0
 QS|                           2) grid level                               100.0
 QS|                           3) grid level                                33.3
 QS|                           4) grid level                                11.1
 QS| Grid level progression factor:                                          3.0
 QS| Relative density cutoff [a.u.]:                                        25.0
 QS| Consistent realspace mapping and integration 
 QS| Interaction thresholds: eps_pgf_orb:                                1.0E-05
 QS|                         eps_filter_matrix:                          0.0E+00
 QS|                         eps_core_charge:                            1.0E-12
 QS|                         eps_rho_gspace:                             1.0E-10
 QS|                         eps_rho_rspace:                             1.0E-10
 QS|                         eps_gvg_rspace:                             1.0E-05
 QS|                         eps_ppl:                                    1.0E-02
 QS|                         eps_ppnl:                                   1.0E-07


 ATOMIC KIND INFORMATION

  1. Atomic kind: O                                     Number of atoms:      24

     Orbital Basis Set                                        DZVP-MOLOPT-SR-GTH

       Number of orbital shell sets:                                           1
       Number of orbital shells:                                               5
       Number of primitive Cartesian functions:                                5
       Number of Cartesian basis functions:                                   14
       Number of spherical basis functions:                                   13
       Norm type:                                                              2

       Normalised Cartesian orbitals:

                        Set   Shell   Orbital            Exponent    Coefficient

                          1       1    2s               10.389228       0.396646
                                                         3.849621       0.208811
                                                         1.388401      -0.301641
                                                         0.496955      -0.274061
                                                         0.162492      -0.033677

                          1       2    3s               10.389228       0.303673
                                                         3.849621       0.240943
                                                         1.388401      -0.313066
                                                         0.496955      -0.043055
                                                         0.162492       0.213991

                          1       3    3px              10.389228      -1.530415
                                                         3.849621      -1.371928
                                                         1.388401      -0.761951
                                                         0.496955      -0.253695
                                                         0.162492      -0.035541
                          1       3    3py              10.389228      -1.530415
                                                         3.849621      -1.371928
                                                         1.388401      -0.761951
                                                         0.496955      -0.253695
                                                         0.162492      -0.035541
                          1       3    3pz              10.389228      -1.530415
                                                         3.849621      -1.371928
                                                         1.388401      -0.761951
                                                         0.496955      -0.253695
                                                         0.162492      -0.035541

                          1       4    4px              10.389228      -0.565392
                                                         3.849621      -0.038231
                                                         1.388401      -0.382373
                                                         0.496955       0.179070
                                                         0.162492       0.122714
                          1       4    4py              10.389228      -0.565392
                                                         3.849621      -0.038231
                                                         1.388401      -0.382373
                                                         0.496955       0.179070
                                                         0.162492       0.122714
                          1       4    4pz              10.389228      -0.565392
                                                         3.849621      -0.038231
                                                         1.388401      -0.382373
                                                         0.496955       0.179070
                                                         0.162492       0.122714

                          1       5    4dx2             10.389228       1.867377
                                                         3.849621       0.670994
                                                         1.388401       1.353441
                                                         0.496955       0.273538
                                                         0.162492       0.006620
                          1       5    4dxy             10.389228       3.234392
                                                         3.849621       1.162195
                                                         1.388401       2.344229
                                                         0.496955       0.473781
                                                         0.162492       0.011466
                          1       5    4dxz             10.389228       3.234392
                                                         3.849621       1.162195
                                                         1.388401       2.344229
                                                         0.496955       0.473781
                                                         0.162492       0.011466
                          1       5    4dy2             10.389228       1.867377
                                                         3.849621       0.670994
                                                         1.388401       1.353441
                                                         0.496955       0.273538
                                                         0.162492       0.006620
                          1       5    4dyz             10.389228       3.234392
                                                         3.849621       1.162195
                                                         1.388401       2.344229
                                                         0.496955       0.473781
                                                         0.162492       0.011466
                          1       5    4dz2             10.389228       1.867377
                                                         3.849621       0.670994
                                                         1.388401       1.353441
                                                         0.496955       0.273538
                                                         0.162492       0.006620

     GTH Potential information for                                       GTH-PBE

       Description:                       Goedecker-Teter-Hutter pseudopotential
                                           Goedecker et al., PRB 54, 1703 (1996)
                                          Hartwigsen et al., PRB 58, 3641 (1998)
                                                      Krack, TCA 114, 145 (2005)

       Gaussian exponent of the core charge distribution:               8.360253
       Electronic configuration (s p d ...):                               2   4

       Parameters of the local part of the GTH pseudopotential:

                          rloc        C1          C2          C3          C4
                        0.244554  -16.667215    2.487311

       Parameters of the non-local part of the GTH pseudopotential:

                   l      r(l)      h(i,j,l)

                   0    0.220956   18.337458
                   1    0.211332

  2. Atomic kind: N                                     Number of atoms:      24

     Orbital Basis Set                                        DZVP-MOLOPT-SR-GTH

       Number of orbital shell sets:                                           1
       Number of orbital shells:                                               5
       Number of primitive Cartesian functions:                                5
       Number of Cartesian basis functions:                                   14
       Number of spherical basis functions:                                   13
       Norm type:                                                              2

       Normalised Cartesian orbitals:

                        Set   Shell   Orbital            Exponent    Coefficient

                          1       1    2s                7.341988       0.360561
                                                         2.542637       0.139177
                                                         0.888575      -0.289383
                                                         0.333802      -0.182244
                                                         0.112012      -0.019197

                          1       2    3s                7.341988       0.282000
                                                         2.542637       0.177875
                                                         0.888575      -0.278381
                                                         0.333802       0.008577
                                                         0.112012       0.154176

                          1       3    3px               7.341988      -1.188719
                                                         2.542637      -0.973969
                                                         0.888575      -0.501079
                                                         0.333802      -0.144894
                                                         0.112012      -0.013986
                          1       3    3py               7.341988      -1.188719
                                                         2.542637      -0.973969
                                                         0.888575      -0.501079
                                                         0.333802      -0.144894
                                                         0.112012      -0.013986
                          1       3    3pz               7.341988      -1.188719
                                                         2.542637      -0.973969
                                                         0.888575      -0.501079
                                                         0.333802      -0.144894
                                                         0.112012      -0.013986

                          1       4    4px               7.341988      -0.094798
                                                         2.542637       0.050069
                                                         0.888575      -0.114797
                                                         0.333802       0.144793
                                                         0.112012       0.066710
                          1       4    4py               7.341988      -0.094798
                                                         2.542637       0.050069
                                                         0.888575      -0.114797
                                                         0.333802       0.144793
                                                         0.112012       0.066710
                          1       4    4pz               7.341988      -0.094798
                                                         2.542637       0.050069
                                                         0.888575      -0.114797
                                                         0.333802       0.144793
                                                         0.112012       0.066710

                          1       5    4dx2              7.341988       1.354688
                                                         2.542637       0.690378
                                                         0.888575       0.855359
                                                         0.333802       0.091746
                                                         0.112012       0.001253
                          1       5    4dxy              7.341988       2.346389
                                                         2.542637       1.195770
                                                         0.888575       1.481524
                                                         0.333802       0.158910
                                                         0.112012       0.002169
                          1       5    4dxz              7.341988       2.346389
                                                         2.542637       1.195770
                                                         0.888575       1.481524
                                                         0.333802       0.158910
                                                         0.112012       0.002169
                          1       5    4dy2              7.341988       1.354688
                                                         2.542637       0.690378
                                                         0.888575       0.855359
                                                         0.333802       0.091746
                                                         0.112012       0.001253
                          1       5    4dyz              7.341988       2.346389
                                                         2.542637       1.195770
                                                         0.888575       1.481524
                                                         0.333802       0.158910
                                                         0.112012       0.002169
                          1       5    4dz2              7.341988       1.354688
                                                         2.542637       0.690378
                                                         0.888575       0.855359
                                                         0.333802       0.091746
                                                         0.112012       0.001253

     GTH Potential information for                                       GTH-PBE

       Description:                       Goedecker-Teter-Hutter pseudopotential
                                           Goedecker et al., PRB 54, 1703 (1996)
                                          Hartwigsen et al., PRB 58, 3641 (1998)
                                                      Krack, TCA 114, 145 (2005)

       Gaussian exponent of the core charge distribution:               6.208322
       Electronic configuration (s p d ...):                               2   3

       Parameters of the local part of the GTH pseudopotential:

                          rloc        C1          C2          C3          C4
                        0.283791  -12.415226    1.868096

       Parameters of the non-local part of the GTH pseudopotential:

                   l      r(l)      h(i,j,l)

                   0    0.255405   13.630263
                   1    0.245495

  3. Atomic kind: C                                     Number of atoms:     216

     Orbital Basis Set                                        DZVP-MOLOPT-SR-GTH

       Number of orbital shell sets:                                           1
       Number of orbital shells:                                               5
       Number of primitive Cartesian functions:                                5
       Number of Cartesian basis functions:                                   14
       Number of spherical basis functions:                                   13
       Norm type:                                                              2

       Normalised Cartesian orbitals:

                        Set   Shell   Orbital            Exponent    Coefficient

                          1       1    2s                5.605331       0.322515
                                                         2.113016       0.213043
                                                         0.769911      -0.209686
                                                         0.348157      -0.219794
                                                         0.128212      -0.022789

                          1       2    3s                5.605331       0.552234
                                                         2.113016       0.082072
                                                         0.769911       0.007843
                                                         0.348157       0.136893
                                                         0.128212       0.074283

                          1       3    3px               5.605331      -0.703879
                                                         2.113016      -0.642521
                                                         0.769911      -0.374851
                                                         0.348157      -0.139743
                                                         0.128212      -0.027849
                          1       3    3py               5.605331      -0.703879
                                                         2.113016      -0.642521
                                                         0.769911      -0.374851
                                                         0.348157      -0.139743
                                                         0.128212      -0.027849
                          1       3    3pz               5.605331      -0.703879
                                                         2.113016      -0.642521
                                                         0.769911      -0.374851
                                                         0.348157      -0.139743
                                                         0.128212      -0.027849

                          1       4    4px               5.605331      -0.480376
                                                         2.113016      -0.552894
                                                         0.769911      -0.316145
                                                         0.348157       0.210505
                                                         0.128212       0.076095
                          1       4    4py               5.605331      -0.480376
                                                         2.113016      -0.552894
                                                         0.769911      -0.316145
                                                         0.348157       0.210505
                                                         0.128212       0.076095
                          1       4    4pz               5.605331      -0.480376
                                                         2.113016      -0.552894
                                                         0.769911      -0.316145
                                                         0.348157       0.210505
                                                         0.128212       0.076095

                          1       5    4dx2              5.605331       0.640026
                                                         2.113016       0.274300
                                                         0.769911       0.446711
                                                         0.348157       0.028674
                                                         0.128212       0.029790
                          1       5    4dxy              5.605331       1.108557
                                                         2.113016       0.475102
                                                         0.769911       0.773726
                                                         0.348157       0.049666
                                                         0.128212       0.051599
                          1       5    4dxz              5.605331       1.108557
                                                         2.113016       0.475102
                                                         0.769911       0.773726
                                                         0.348157       0.049666
                                                         0.128212       0.051599
                          1       5    4dy2              5.605331       0.640026
                                                         2.113016       0.274300
                                                         0.769911       0.446711
                                                         0.348157       0.028674
                                                         0.128212       0.029790
                          1       5    4dyz              5.605331       1.108557
                                                         2.113016       0.475102
                                                         0.769911       0.773726
                                                         0.348157       0.049666
                                                         0.128212       0.051599
                          1       5    4dz2              5.605331       0.640026
                                                         2.113016       0.274300
                                                         0.769911       0.446711
                                                         0.348157       0.028674
                                                         0.128212       0.029790

     GTH Potential information for                                       GTH-PBE

       Description:                       Goedecker-Teter-Hutter pseudopotential
                                           Goedecker et al., PRB 54, 1703 (1996)
                                          Hartwigsen et al., PRB 58, 3641 (1998)
                                                      Krack, TCA 114, 145 (2005)

       Gaussian exponent of the core charge distribution:               4.364419
       Electronic configuration (s p d ...):                               2   2

       Parameters of the local part of the GTH pseudopotential:

                          rloc        C1          C2          C3          C4
                        0.338471   -8.803674    1.339211

       Parameters of the non-local part of the GTH pseudopotential:

                   l      r(l)      h(i,j,l)

                   0    0.302576    9.622487
                   1    0.291507

  4. Atomic kind: H                                     Number of atoms:     144

     Orbital Basis Set                                        DZVP-MOLOPT-SR-GTH

       Number of orbital shell sets:                                           1
       Number of orbital shells:                                               3
       Number of primitive Cartesian functions:                                5
       Number of Cartesian basis functions:                                    5
       Number of spherical basis functions:                                    5
       Norm type:                                                              2

       Normalised Cartesian orbitals:

                        Set   Shell   Orbital            Exponent    Coefficient

                          1       1    2s               10.068468      -0.133023
                                                         2.680223      -0.177618
                                                         0.791502      -0.258419
                                                         0.239116      -0.107525
                                                         0.082193      -0.014019

                          1       2    3s               10.068468       0.344673
                                                         2.680223       1.819821
                                                         0.791502      -0.999069
                                                         0.239116       0.017430
                                                         0.082193       0.082660

                          1       3    3px              10.068468       0.155326
                                                         2.680223       0.367157
                                                         0.791502       0.311480
                                                         0.239116       0.080105
                                                         0.082193       0.033440
                          1       3    3py              10.068468       0.155326
                                                         2.680223       0.367157
                                                         0.791502       0.311480
                                                         0.239116       0.080105
                                                         0.082193       0.033440
                          1       3    3pz              10.068468       0.155326
                                                         2.680223       0.367157
                                                         0.791502       0.311480
                                                         0.239116       0.080105
                                                         0.082193       0.033440

     GTH Potential information for                                       GTH-PBE

       Description:                       Goedecker-Teter-Hutter pseudopotential
                                           Goedecker et al., PRB 54, 1703 (1996)
                                          Hartwigsen et al., PRB 58, 3641 (1998)
                                                      Krack, TCA 114, 145 (2005)

       Gaussian exponent of the core charge distribution:              12.500000
       Electronic configuration (s p d ...):                                   1

       Parameters of the local part of the GTH pseudopotential:

                          rloc        C1          C2          C3          C4
                        0.200000   -4.178900    0.724463


 MOLECULE KIND INFORMATION


 All atoms are their own molecule, skipping detailed information


 TOTAL NUMBERS AND MAXIMUM NUMBERS

  Total number of            - Atomic kinds:                                   4
                             - Atoms:                                        408
                             - Shell sets:                                   408
                             - Shells:                                      1752
                             - Primitive Cartesian functions:               2040
                             - Cartesian basis functions:                   4416
                             - Spherical basis functions:                   4152

  Maximum angular momentum of- Orbital basis functions:                        2
                             - Local part of the GTH pseudopotential:          2
                             - Non-local part of the GTH pseudopotential:      0


 MODULE QUICKSTEP:  ATOMIC COORDINATES IN angstrom

  Atom  Kind  Element       X           Y           Z          Z(eff)       Mass

       1     1 O    8    0.439310   14.233920    0.000000      6.00      15.9994
       2     2 N    7    2.874530   14.662570    0.000000      5.00      14.0067
       3     3 C    6    0.238690   15.489410    0.000000      4.00      12.0107
       4     3 C    6    2.606550   15.973850    0.000000      4.00      12.0107
       5     3 C    6    4.130950   14.124860    0.000000      4.00      12.0107
       6     3 C    6    5.264360   14.921270    0.000000      4.00      12.0107
       7     3 C    6    6.495880   14.345520    0.000000      4.00      12.0107
       8     3 C    6    6.656960   12.965760    0.000000      4.00      12.0107
       9     3 C    6    5.504510   12.182030    0.000000      4.00      12.0107
      10     3 C    6    4.259810   12.750170    0.000000      4.00      12.0107
      11     3 C    6    1.312060   16.415170    0.000000      4.00      12.0107
      12     4 H    1    3.403160   16.719540    0.000000      1.00       1.0079
      13     4 H    1    5.180890   16.014430    0.000000      1.00       1.0079
      14     4 H    1    1.943200   14.094430    0.000000      1.00       1.0079
      15     4 H    1    3.346050   12.131300    0.000000      1.00       1.0079
      16     4 H    1    7.374490   15.004970    0.000000      1.00       1.0079
      17     4 H    1    5.579190   11.088870    0.000000      1.00       1.0079
      18     1 O    8    2.096960   18.626860    0.000000      6.00      15.9994
      19     2 N    7    0.508130   20.521500    0.000000      5.00      14.0067
      20     3 C    6    1.109980   17.825380    0.000000      4.00      12.0107
      21     3 C    6   -0.493490   19.633790    0.000000      4.00      12.0107
      22     3 C    6    0.345590   21.878450    0.000000      4.00      12.0107
      23     3 C    6   -0.910830   22.461800    0.000000      4.00      12.0107
      24     3 C    6   -1.027980   23.816210    0.000000      4.00      12.0107
      25     3 C    6    0.086400   24.645590    0.000000      4.00      12.0107
      26     3 C    6    1.341350   24.039400    0.000000      4.00      12.0107
      27     3 C    6    1.471680   22.677390    0.000000      4.00      12.0107
      28     3 C    6   -0.228440   18.292060    0.000000      4.00      12.0107
      29     4 H    1   -1.537570   19.950830    0.000000      1.00       1.0079
      30     4 H    1   -1.815800   21.842940    0.000000      1.00       1.0079
      31     4 H    1    1.465820   19.999020    0.000000      1.00       1.0079
      32     4 H    1    2.464510   22.195490    0.000000      1.00       1.0079
      33     4 H    1   -2.038380   24.247380    0.000000      1.00       1.0079
      34     4 H    1    2.250710   24.650660    0.000000      1.00       1.0079
      35     1 O    8   -2.536260   17.865960    0.000000      6.00      15.9994
      36     2 N    7   -3.382660   15.542670    0.000000      5.00      14.0067
      37     3 C    6   -1.348670   17.411960    0.000000      4.00      12.0107
      38     3 C    6   -2.113060   15.119110    0.000000      4.00      12.0107
      39     3 C    6   -4.476530   14.723440    0.000000      4.00      12.0107
      40     3 C    6   -4.353530   13.343670    0.000000      4.00      12.0107
      41     3 C    6   -5.467900   12.565010    0.000000      4.00      12.0107
      42     3 C    6   -6.743350   13.115400    0.000000      4.00      12.0107
      43     3 C    6   -6.845860   14.505310    0.000000      4.00      12.0107
      44     3 C    6   -5.731490   15.299190    0.000000      4.00      12.0107
      45     3 C    6   -1.083620   16.019510    0.000000      4.00      12.0107
      46     4 H    1   -1.865590   14.056380    0.000000      1.00       1.0079
      47     4 H    1   -3.365090   12.869380    0.000000      1.00       1.0079
      48     4 H    1   -3.409020   16.633300    0.000000      1.00       1.0079
      49     4 H    1   -5.810560   16.399960    0.000000      1.00       1.0079
      50     4 H    1   -5.336110   11.474390    0.000000      1.00       1.0079
      51     4 H    1   -7.829910   14.987220    0.000000      1.00       1.0079
      52     1 O    8   14.204240   11.129450    0.000000      6.00      15.9994
      53     2 N    7   11.769020   10.700810    0.000000      5.00      14.0067
      54     3 C    6   14.404860    9.873960    0.000000      4.00      12.0107
      55     3 C    6   12.037000    9.389520    0.000000      4.00      12.0107
      56     3 C    6   10.512600   11.238510    0.000000      4.00      12.0107
      57     3 C    6    9.379190   10.442100    0.000000      4.00      12.0107
      58     3 C    6    8.147670   11.017850    0.000000      4.00      12.0107
      59     3 C    6    7.986590   12.397620    0.000000      4.00      12.0107
      60     3 C    6    9.139040   13.181340    0.000000      4.00      12.0107
      61     3 C    6   10.383740   12.613210    0.000000      4.00      12.0107
      62     3 C    6   13.331490    8.948200    0.000000      4.00      12.0107
      63     4 H    1   11.240390    8.643840    0.000000      1.00       1.0079
      64     4 H    1    9.462660    9.348940    0.000000      1.00       1.0079
      65     4 H    1   12.700350   11.268950    0.000000      1.00       1.0079
      66     4 H    1   11.297500   13.232070    0.000000      1.00       1.0079
      67     4 H    1    7.269060   10.358400    0.000000      1.00       1.0079
      68     4 H    1    9.064360   14.274510    0.000000      1.00       1.0079
      69     1 O    8   12.546590    6.736510    0.000000      6.00      15.9994
      70     2 N    7   14.135420    4.841870    0.000000      5.00      14.0067
      71     3 C    6   13.533570    7.537990    0.000000      4.00      12.0107
      72     3 C    6   15.137040    5.729590    0.000000      4.00      12.0107
      73     3 C    6   14.297960    3.484930    0.000000      4.00      12.0107
      74     3 C    6   15.554380    2.901570    0.000000      4.00      12.0107
      75     3 C    6   15.671530    1.547170    0.000000      4.00      12.0107
      76     3 C    6   14.557150    0.717780    0.000000      4.00      12.0107
      77     3 C    6   13.302200    1.323970    0.000000      4.00      12.0107
      78     3 C    6   13.171870    2.685980    0.000000      4.00      12.0107
      79     3 C    6   14.871990    7.071310    0.000000      4.00      12.0107
      80     4 H    1   16.181120    5.412540    0.000000      1.00       1.0079
      81     4 H    1   16.459350    3.520440    0.000000      1.00       1.0079
      82     4 H    1   13.177730    5.364350    0.000000      1.00       1.0079
      83     4 H    1   12.179040    3.167890    0.000000      1.00       1.0079
      84     4 H    1   16.681930    1.115990    0.000000      1.00       1.0079
      85     4 H    1   12.392840    0.712710    0.000000      1.00       1.0079
      86     1 O    8   17.179810    7.497410    0.000000      6.00      15.9994
      87     2 N    7   18.026210    9.820700    0.000000      5.00      14.0067
      88     3 C    6   15.992220    7.951420    0.000000      4.00      12.0107
      89     3 C    6   16.756610   10.244270    0.000000      4.00      12.0107
      90     3 C    6   19.120080   10.639930    0.000000      4.00      12.0107
      91     3 C    6   18.997080   12.019700    0.000000      4.00      12.0107
      92     3 C    6   20.111450   12.798360    0.000000      4.00      12.0107
      93     3 C    6   21.386900   12.247970    0.000000      4.00      12.0107
      94     3 C    6   21.489410   10.858060    0.000000      4.00      12.0107
      95     3 C    6   20.375040   10.064190    0.000000      4.00      12.0107
      96     3 C    6   15.727170    9.343870    0.000000      4.00      12.0107
      97     4 H    1   16.509140   11.306990    0.000000      1.00       1.0079
      98     4 H    1   18.008640   12.494000    0.000000      1.00       1.0079
      99     4 H    1   18.052570    8.730070    0.000000      1.00       1.0079
     100     4 H    1   20.454110    8.963420    0.000000      1.00       1.0079
     101     4 H    1   19.979660   13.888980    0.000000      1.00       1.0079
     102     4 H    1   22.473460   10.376160    0.000000      1.00       1.0079
     103     1 O    8    0.439310   14.233920    3.250000      6.00      15.9994
     104     2 N    7    2.874530   14.662570    3.250000      5.00      14.0067
     105     3 C    6    0.238690   15.489410    3.250000      4.00      12.0107
     106     3 C    6    2.606550   15.973850    3.250000      4.00      12.0107
     107     3 C    6    4.130950   14.124860    3.250000      4.00      12.0107
     108     3 C    6    5.264360   14.921270    3.250000      4.00      12.0107
     109     3 C    6    6.495880   14.345520    3.250000      4.00      12.0107
     110     3 C    6    6.656960   12.965760    3.250000      4.00      12.0107
     111     3 C    6    5.504510   12.182030    3.250000      4.00      12.0107
     112     3 C    6    4.259810   12.750170    3.250000      4.00      12.0107
     113     3 C    6    1.312060   16.415170    3.250000      4.00      12.0107
     114     4 H    1    3.403160   16.719540    3.250000      1.00       1.0079
     115     4 H    1    5.180890   16.014430    3.250000      1.00       1.0079
     116     4 H    1    1.943200   14.094430    3.250000      1.00       1.0079
     117     4 H    1    3.346050   12.131300    3.250000      1.00       1.0079
     118     4 H    1    7.374490   15.004970    3.250000      1.00       1.0079
     119     4 H    1    5.579190   11.088870    3.250000      1.00       1.0079
     120     1 O    8    2.096960   18.626860    3.250000      6.00      15.9994
     121     2 N    7    0.508130   20.521500    3.250000      5.00      14.0067
     122     3 C    6    1.109980   17.825380    3.250000      4.00      12.0107
     123     3 C    6   -0.493490   19.633790    3.250000      4.00      12.0107
     124     3 C    6    0.345590   21.878450    3.250000      4.00      12.0107
     125     3 C    6   -0.910830   22.461800    3.250000      4.00      12.0107
     126     3 C    6   -1.027980   23.816210    3.250000      4.00      12.0107
     127     3 C    6    0.086400   24.645590    3.250000      4.00      12.0107
     128     3 C    6    1.341350   24.039400    3.250000      4.00      12.0107
     129     3 C    6    1.471680   22.677390    3.250000      4.00      12.0107
     130     3 C    6   -0.228440   18.292060    3.250000      4.00      12.0107
     131     4 H    1   -1.537570   19.950830    3.250000      1.00       1.0079
     132     4 H    1   -1.815800   21.842940    3.250000      1.00       1.0079
     133     4 H    1    1.465820   19.999020    3.250000      1.00       1.0079
     134     4 H    1    2.464510   22.195490    3.250000      1.00       1.0079
     135     4 H    1   -2.038380   24.247380    3.250000      1.00       1.0079
     136     4 H    1    2.250710   24.650660    3.250000      1.00       1.0079
     137     1 O    8   -2.536260   17.865960    3.250000      6.00      15.9994
     138     2 N    7   -3.382660   15.542670    3.250000      5.00      14.0067
     139     3 C    6   -1.348670   17.411960    3.250000      4.00      12.0107
     140     3 C    6   -2.113060   15.119110    3.250000      4.00      12.0107
     141     3 C    6   -4.476530   14.723440    3.250000      4.00      12.0107
     142     3 C    6   -4.353530   13.343670    3.250000      4.00      12.0107
     143     3 C    6   -5.467900   12.565010    3.250000      4.00      12.0107
     144     3 C    6   -6.743350   13.115400    3.250000      4.00      12.0107
     145     3 C    6   -6.845860   14.505310    3.250000      4.00      12.0107
     146     3 C    6   -5.731490   15.299190    3.250000      4.00      12.0107
     147     3 C    6   -1.083620   16.019510    3.250000      4.00      12.0107
     148     4 H    1   -1.865590   14.056380    3.250000      1.00       1.0079
     149     4 H    1   -3.365090   12.869380    3.250000      1.00       1.0079
     150     4 H    1   -3.409020   16.633300    3.250000      1.00       1.0079
     151     4 H    1   -5.810560   16.399960    3.250000      1.00       1.0079
     152     4 H    1   -5.336110   11.474390    3.250000      1.00       1.0079
     153     4 H    1   -7.829910   14.987220    3.250000      1.00       1.0079
     154     1 O    8   14.204240   11.129450    3.250000      6.00      15.9994
     155     2 N    7   11.769020   10.700810    3.250000      5.00      14.0067
     156     3 C    6   14.404860    9.873960    3.250000      4.00      12.0107
     157     3 C    6   12.037000    9.389520    3.250000      4.00      12.0107
     158     3 C    6   10.512600   11.238510    3.250000      4.00      12.0107
     159     3 C    6    9.379190   10.442100    3.250000      4.00      12.0107
     160     3 C    6    8.147670   11.017850    3.250000      4.00      12.0107
     161     3 C    6    7.986590   12.397620    3.250000      4.00      12.0107
     162     3 C    6    9.139040   13.181340    3.250000      4.00      12.0107
     163     3 C    6   10.383740   12.613210    3.250000      4.00      12.0107
     164     3 C    6   13.331490    8.948200    3.250000      4.00      12.0107
     165     4 H    1   11.240390    8.643840    3.250000      1.00       1.0079
     166     4 H    1    9.462660    9.348940    3.250000      1.00       1.0079
     167     4 H    1   12.700350   11.268950    3.250000      1.00       1.0079
     168     4 H    1   11.297500   13.232070    3.250000      1.00       1.0079
     169     4 H    1    7.269060   10.358400    3.250000      1.00       1.0079
     170     4 H    1    9.064360   14.274510    3.250000      1.00       1.0079
     171     1 O    8   12.546590    6.736510    3.250000      6.00      15.9994
     172     2 N    7   14.135420    4.841870    3.250000      5.00      14.0067
     173     3 C    6   13.533570    7.537990    3.250000      4.00      12.0107
     174     3 C    6   15.137040    5.729590    3.250000      4.00      12.0107
     175     3 C    6   14.297960    3.484930    3.250000      4.00      12.0107
     176     3 C    6   15.554380    2.901570    3.250000      4.00      12.0107
     177     3 C    6   15.671530    1.547170    3.250000      4.00      12.0107
     178     3 C    6   14.557150    0.717780    3.250000      4.00      12.0107
     179     3 C    6   13.302200    1.323970    3.250000      4.00      12.0107
     180     3 C    6   13.171870    2.685980    3.250000      4.00      12.0107
     181     3 C    6   14.871990    7.071310    3.250000      4.00      12.0107
     182     4 H    1   16.181120    5.412540    3.250000      1.00       1.0079
     183     4 H    1   16.459350    3.520440    3.250000      1.00       1.0079
     184     4 H    1   13.177730    5.364350    3.250000      1.00       1.0079
     185     4 H    1   12.179040    3.167890    3.250000      1.00       1.0079
     186     4 H    1   16.681930    1.115990    3.250000      1.00       1.0079
     187     4 H    1   12.392840    0.712710    3.250000      1.00       1.0079
     188     1 O    8   17.179810    7.497410    3.250000      6.00      15.9994
     189     2 N    7   18.026210    9.820700    3.250000      5.00      14.0067
     190     3 C    6   15.992220    7.951420    3.250000      4.00      12.0107
     191     3 C    6   16.756610   10.244270    3.250000      4.00      12.0107
     192     3 C    6   19.120080   10.639930    3.250000      4.00      12.0107
     193     3 C    6   18.997080   12.019700    3.250000      4.00      12.0107
     194     3 C    6   20.111450   12.798360    3.250000      4.00      12.0107
     195     3 C    6   21.386900   12.247970    3.250000      4.00      12.0107
     196     3 C    6   21.489410   10.858060    3.250000      4.00      12.0107
     197     3 C    6   20.375040   10.064190    3.250000      4.00      12.0107
     198     3 C    6   15.727170    9.343870    3.250000      4.00      12.0107
     199     4 H    1   16.509140   11.306990    3.250000      1.00       1.0079
     200     4 H    1   18.008640   12.494000    3.250000      1.00       1.0079
     201     4 H    1   18.052570    8.730070    3.250000      1.00       1.0079
     202     4 H    1   20.454110    8.963420    3.250000      1.00       1.0079
     203     4 H    1   19.979660   13.888980    3.250000      1.00       1.0079
     204     4 H    1   22.473460   10.376160    3.250000      1.00       1.0079
     205     1 O    8    0.439310   14.233920    6.500000      6.00      15.9994
     206     2 N    7    2.874530   14.662570    6.500000      5.00      14.0067
     207     3 C    6    0.238690   15.489410    6.500000      4.00      12.0107
     208     3 C    6    2.606550   15.973850    6.500000      4.00      12.0107
     209     3 C    6    4.130950   14.124860    6.500000      4.00      12.0107
     210     3 C    6    5.264360   14.921270    6.500000      4.00      12.0107
     211     3 C    6    6.495880   14.345520    6.500000      4.00      12.0107
     212     3 C    6    6.656960   12.965760    6.500000      4.00      12.0107
     213     3 C    6    5.504510   12.182030    6.500000      4.00      12.0107
     214     3 C    6    4.259810   12.750170    6.500000      4.00      12.0107
     215     3 C    6    1.312060   16.415170    6.500000      4.00      12.0107
     216     4 H    1    3.403160   16.719540    6.500000      1.00       1.0079
     217     4 H    1    5.180890   16.014430    6.500000      1.00       1.0079
     218     4 H    1    1.943200   14.094430    6.500000      1.00       1.0079
     219     4 H    1    3.346050   12.131300    6.500000      1.00       1.0079
     220     4 H    1    7.374490   15.004970    6.500000      1.00       1.0079
     221     4 H    1    5.579190   11.088870    6.500000      1.00       1.0079
     222     1 O    8    2.096960   18.626860    6.500000      6.00      15.9994
     223     2 N    7    0.508130   20.521500    6.500000      5.00      14.0067
     224     3 C    6    1.109980   17.825380    6.500000      4.00      12.0107
     225     3 C    6   -0.493490   19.633790    6.500000      4.00      12.0107
     226     3 C    6    0.345590   21.878450    6.500000      4.00      12.0107
     227     3 C    6   -0.910830   22.461800    6.500000      4.00      12.0107
     228     3 C    6   -1.027980   23.816210    6.500000      4.00      12.0107
     229     3 C    6    0.086400   24.645590    6.500000      4.00      12.0107
     230     3 C    6    1.341350   24.039400    6.500000      4.00      12.0107
     231     3 C    6    1.471680   22.677390    6.500000      4.00      12.0107
     232     3 C    6   -0.228440   18.292060    6.500000      4.00      12.0107
     233     4 H    1   -1.537570   19.950830    6.500000      1.00       1.0079
     234     4 H    1   -1.815800   21.842940    6.500000      1.00       1.0079
     235     4 H    1    1.465820   19.999020    6.500000      1.00       1.0079
     236     4 H    1    2.464510   22.195490    6.500000      1.00       1.0079
     237     4 H    1   -2.038380   24.247380    6.500000      1.00       1.0079
     238     4 H    1    2.250710   24.650660    6.500000      1.00       1.0079
     239     1 O    8   -2.536260   17.865960    6.500000      6.00      15.9994
     240     2 N    7   -3.382660   15.542670    6.500000      5.00      14.0067
     241     3 C    6   -1.348670   17.411960    6.500000      4.00      12.0107
     242     3 C    6   -2.113060   15.119110    6.500000      4.00      12.0107
     243     3 C    6   -4.476530   14.723440    6.500000      4.00      12.0107
     244     3 C    6   -4.353530   13.343670    6.500000      4.00      12.0107
     245     3 C    6   -5.467900   12.565010    6.500000      4.00      12.0107
     246     3 C    6   -6.743350   13.115400    6.500000      4.00      12.0107
     247     3 C    6   -6.845860   14.505310    6.500000      4.00      12.0107
     248     3 C    6   -5.731490   15.299190    6.500000      4.00      12.0107
     249     3 C    6   -1.083620   16.019510    6.500000      4.00      12.0107
     250     4 H    1   -1.865590   14.056380    6.500000      1.00       1.0079
     251     4 H    1   -3.365090   12.869380    6.500000      1.00       1.0079
     252     4 H    1   -3.409020   16.633300    6.500000      1.00       1.0079
     253     4 H    1   -5.810560   16.399960    6.500000      1.00       1.0079
     254     4 H    1   -5.336110   11.474390    6.500000      1.00       1.0079
     255     4 H    1   -7.829910   14.987220    6.500000      1.00       1.0079
     256     1 O    8   14.204240   11.129450    6.500000      6.00      15.9994
     257     2 N    7   11.769020   10.700810    6.500000      5.00      14.0067
     258     3 C    6   14.404860    9.873960    6.500000      4.00      12.0107
     259     3 C    6   12.037000    9.389520    6.500000      4.00      12.0107
     260     3 C    6   10.512600   11.238510    6.500000      4.00      12.0107
     261     3 C    6    9.379190   10.442100    6.500000      4.00      12.0107
     262     3 C    6    8.147670   11.017850    6.500000      4.00      12.0107
     263     3 C    6    7.986590   12.397620    6.500000      4.00      12.0107
     264     3 C    6    9.139040   13.181340    6.500000      4.00      12.0107
     265     3 C    6   10.383740   12.613210    6.500000      4.00      12.0107
     266     3 C    6   13.331490    8.948200    6.500000      4.00      12.0107
     267     4 H    1   11.240390    8.643840    6.500000      1.00       1.0079
     268     4 H    1    9.462660    9.348940    6.500000      1.00       1.0079
     269     4 H    1   12.700350   11.268950    6.500000      1.00       1.0079
     270     4 H    1   11.297500   13.232070    6.500000      1.00       1.0079
     271     4 H    1    7.269060   10.358400    6.500000      1.00       1.0079
     272     4 H    1    9.064360   14.274510    6.500000      1.00       1.0079
     273     1 O    8   12.546590    6.736510    6.500000      6.00      15.9994
     274     2 N    7   14.135420    4.841870    6.500000      5.00      14.0067
     275     3 C    6   13.533570    7.537990    6.500000      4.00      12.0107
     276     3 C    6   15.137040    5.729590    6.500000      4.00      12.0107
     277     3 C    6   14.297960    3.484930    6.500000      4.00      12.0107
     278     3 C    6   15.554380    2.901570    6.500000      4.00      12.0107
     279     3 C    6   15.671530    1.547170    6.500000      4.00      12.0107
     280     3 C    6   14.557150    0.717780    6.500000      4.00      12.0107
     281     3 C    6   13.302200    1.323970    6.500000      4.00      12.0107
     282     3 C    6   13.171870    2.685980    6.500000      4.00      12.0107
     283     3 C    6   14.871990    7.071310    6.500000      4.00      12.0107
     284     4 H    1   16.181120    5.412540    6.500000      1.00       1.0079
     285     4 H    1   16.459350    3.520440    6.500000      1.00       1.0079
     286     4 H    1   13.177730    5.364350    6.500000      1.00       1.0079
     287     4 H    1   12.179040    3.167890    6.500000      1.00       1.0079
     288     4 H    1   16.681930    1.115990    6.500000      1.00       1.0079
     289     4 H    1   12.392840    0.712710    6.500000      1.00       1.0079
     290     1 O    8   17.179810    7.497410    6.500000      6.00      15.9994
     291     2 N    7   18.026210    9.820700    6.500000      5.00      14.0067
     292     3 C    6   15.992220    7.951420    6.500000      4.00      12.0107
     293     3 C    6   16.756610   10.244270    6.500000      4.00      12.0107
     294     3 C    6   19.120080   10.639930    6.500000      4.00      12.0107
     295     3 C    6   18.997080   12.019700    6.500000      4.00      12.0107
     296     3 C    6   20.111450   12.798360    6.500000      4.00      12.0107
     297     3 C    6   21.386900   12.247970    6.500000      4.00      12.0107
     298     3 C    6   21.489410   10.858060    6.500000      4.00      12.0107
     299     3 C    6   20.375040   10.064190    6.500000      4.00      12.0107
     300     3 C    6   15.727170    9.343870    6.500000      4.00      12.0107
     301     4 H    1   16.509140   11.306990    6.500000      1.00       1.0079
     302     4 H    1   18.008640   12.494000    6.500000      1.00       1.0079
     303     4 H    1   18.052570    8.730070    6.500000      1.00       1.0079
     304     4 H    1   20.454110    8.963420    6.500000      1.00       1.0079
     305     4 H    1   19.979660   13.888980    6.500000      1.00       1.0079
     306     4 H    1   22.473460   10.376160    6.500000      1.00       1.0079
     307     1 O    8    0.439310   14.233920    9.750000      6.00      15.9994
     308     2 N    7    2.874530   14.662570    9.750000      5.00      14.0067
     309     3 C    6    0.238690   15.489410    9.750000      4.00      12.0107
     310     3 C    6    2.606550   15.973850    9.750000      4.00      12.0107
     311     3 C    6    4.130950   14.124860    9.750000      4.00      12.0107
     312     3 C    6    5.264360   14.921270    9.750000      4.00      12.0107
     313     3 C    6    6.495880   14.345520    9.750000      4.00      12.0107
     314     3 C    6    6.656960   12.965760    9.750000      4.00      12.0107
     315     3 C    6    5.504510   12.182030    9.750000      4.00      12.0107
     316     3 C    6    4.259810   12.750170    9.750000      4.00      12.0107
     317     3 C    6    1.312060   16.415170    9.750000      4.00      12.0107
     318     4 H    1    3.403160   16.719540    9.750000      1.00       1.0079
     319     4 H    1    5.180890   16.014430    9.750000      1.00       1.0079
     320     4 H    1    1.943200   14.094430    9.750000      1.00       1.0079
     321     4 H    1    3.346050   12.131300    9.750000      1.00       1.0079
     322     4 H    1    7.374490   15.004970    9.750000      1.00       1.0079
     323     4 H    1    5.579190   11.088870    9.750000      1.00       1.0079
     324     1 O    8    2.096960   18.626860    9.750000      6.00      15.9994
     325     2 N    7    0.508130   20.521500    9.750000      5.00      14.0067
     326     3 C    6    1.109980   17.825380    9.750000      4.00      12.0107
     327     3 C    6   -0.493490   19.633790    9.750000      4.00      12.0107
     328     3 C    6    0.345590   21.878450    9.750000      4.00      12.0107
     329     3 C    6   -0.910830   22.461800    9.750000      4.00      12.0107
     330     3 C    6   -1.027980   23.816210    9.750000      4.00      12.0107
     331     3 C    6    0.086400   24.645590    9.750000      4.00      12.0107
     332     3 C    6    1.341350   24.039400    9.750000      4.00      12.0107
     333     3 C    6    1.471680   22.677390    9.750000      4.00      12.0107
     334     3 C    6   -0.228440   18.292060    9.750000      4.00      12.0107
     335     4 H    1   -1.537570   19.950830    9.750000      1.00       1.0079
     336     4 H    1   -1.815800   21.842940    9.750000      1.00       1.0079
     337     4 H    1    1.465820   19.999020    9.750000      1.00       1.0079
     338     4 H    1    2.464510   22.195490    9.750000      1.00       1.0079
     339     4 H    1   -2.038380   24.247380    9.750000      1.00       1.0079
     340     4 H    1    2.250710   24.650660    9.750000      1.00       1.0079
     341     1 O    8   -2.536260   17.865960    9.750000      6.00      15.9994
     342     2 N    7   -3.382660   15.542670    9.750000      5.00      14.0067
     343     3 C    6   -1.348670   17.411960    9.750000      4.00      12.0107
     344     3 C    6   -2.113060   15.119110    9.750000      4.00      12.0107
     345     3 C    6   -4.476530   14.723440    9.750000      4.00      12.0107
     346     3 C    6   -4.353530   13.343670    9.750000      4.00      12.0107
     347     3 C    6   -5.467900   12.565010    9.750000      4.00      12.0107
     348     3 C    6   -6.743350   13.115400    9.750000      4.00      12.0107
     349     3 C    6   -6.845860   14.505310    9.750000      4.00      12.0107
     350     3 C    6   -5.731490   15.299190    9.750000      4.00      12.0107
     351     3 C    6   -1.083620   16.019510    9.750000      4.00      12.0107
     352     4 H    1   -1.865590   14.056380    9.750000      1.00       1.0079
     353     4 H    1   -3.365090   12.869380    9.750000      1.00       1.0079
     354     4 H    1   -3.409020   16.633300    9.750000      1.00       1.0079
     355     4 H    1   -5.810560   16.399960    9.750000      1.00       1.0079
     356     4 H    1   -5.336110   11.474390    9.750000      1.00       1.0079
     357     4 H    1   -7.829910   14.987220    9.750000      1.00       1.0079
     358     1 O    8   14.204240   11.129450    9.750000      6.00      15.9994
     359     2 N    7   11.769020   10.700810    9.750000      5.00      14.0067
     360     3 C    6   14.404860    9.873960    9.750000      4.00      12.0107
     361     3 C    6   12.037000    9.389520    9.750000      4.00      12.0107
     362     3 C    6   10.512600   11.238510    9.750000      4.00      12.0107
     363     3 C    6    9.379190   10.442100    9.750000      4.00      12.0107
     364     3 C    6    8.147670   11.017850    9.750000      4.00      12.0107
     365     3 C    6    7.986590   12.397620    9.750000      4.00      12.0107
     366     3 C    6    9.139040   13.181340    9.750000      4.00      12.0107
     367     3 C    6   10.383740   12.613210    9.750000      4.00      12.0107
     368     3 C    6   13.331490    8.948200    9.750000      4.00      12.0107
     369     4 H    1   11.240390    8.643840    9.750000      1.00       1.0079
     370     4 H    1    9.462660    9.348940    9.750000      1.00       1.0079
     371     4 H    1   12.700350   11.268950    9.750000      1.00       1.0079
     372     4 H    1   11.297500   13.232070    9.750000      1.00       1.0079
     373     4 H    1    7.269060   10.358400    9.750000      1.00       1.0079
     374     4 H    1    9.064360   14.274510    9.750000      1.00       1.0079
     375     1 O    8   12.546590    6.736510    9.750000      6.00      15.9994
     376     2 N    7   14.135420    4.841870    9.750000      5.00      14.0067
     377     3 C    6   13.533570    7.537990    9.750000      4.00      12.0107
     378     3 C    6   15.137040    5.729590    9.750000      4.00      12.0107
     379     3 C    6   14.297960    3.484930    9.750000      4.00      12.0107
     380     3 C    6   15.554380    2.901570    9.750000      4.00      12.0107
     381     3 C    6   15.671530    1.547170    9.750000      4.00      12.0107
     382     3 C    6   14.557150    0.717780    9.750000      4.00      12.0107
     383     3 C    6   13.302200    1.323970    9.750000      4.00      12.0107
     384     3 C    6   13.171870    2.685980    9.750000      4.00      12.0107
     385     3 C    6   14.871990    7.071310    9.750000      4.00      12.0107
     386     4 H    1   16.181120    5.412540    9.750000      1.00       1.0079
     387     4 H    1   16.459350    3.520440    9.750000      1.00       1.0079
     388     4 H    1   13.177730    5.364350    9.750000      1.00       1.0079
     389     4 H    1   12.179040    3.167890    9.750000      1.00       1.0079
     390     4 H    1   16.681930    1.115990    9.750000      1.00       1.0079
     391     4 H    1   12.392840    0.712710    9.750000      1.00       1.0079
     392     1 O    8   17.179810    7.497410    9.750000      6.00      15.9994
     393     2 N    7   18.026210    9.820700    9.750000      5.00      14.0067
     394     3 C    6   15.992220    7.951420    9.750000      4.00      12.0107
     395     3 C    6   16.756610   10.244270    9.750000      4.00      12.0107
     396     3 C    6   19.120080   10.639930    9.750000      4.00      12.0107
     397     3 C    6   18.997080   12.019700    9.750000      4.00      12.0107
     398     3 C    6   20.111450   12.798360    9.750000      4.00      12.0107
     399     3 C    6   21.386900   12.247970    9.750000      4.00      12.0107
     400     3 C    6   21.489410   10.858060    9.750000      4.00      12.0107
     401     3 C    6   20.375040   10.064190    9.750000      4.00      12.0107
     402     3 C    6   15.727170    9.343870    9.750000      4.00      12.0107
     403     4 H    1   16.509140   11.306990    9.750000      1.00       1.0079
     404     4 H    1   18.008640   12.494000    9.750000      1.00       1.0079
     405     4 H    1   18.052570    8.730070    9.750000      1.00       1.0079
     406     4 H    1   20.454110    8.963420    9.750000      1.00       1.0079
     407     4 H    1   19.979660   13.888980    9.750000      1.00       1.0079
     408     4 H    1   22.473460   10.376160    9.750000      1.00       1.0079




 SCF PARAMETERS         Density guess:                                   RESTART
                        --------------------------------------------------------
                        max_scf:                                              50
                        max_scf_history:                                       0
                        max_diis:                                              4
                        --------------------------------------------------------
                        eps_scf:                                        1.00E-06
                        eps_scf_history:                                0.00E+00
                        eps_diis:                                       1.00E-01
                        eps_eigval:                                     1.00E-05
                        --------------------------------------------------------
                        level_shift [a.u.]:                                 0.00
                        --------------------------------------------------------
                        Outer loop SCF in use 
                        No variables optimised in outer loop
                        eps_scf                                         1.00E-06
                        max_scf                                               10
                        No outer loop optimization
                        step_size                                       5.00E-01

 PW_GRID| Information for grid number                                          1
 PW_GRID| Grid distributed over                                    49 processors
 PW_GRID| Real space group dimensions                                    49    1
 PW_GRID| the grid is blocked:                                                NO
 PW_GRID| Cutoff [a.u.]                                                    300.0
 PW_GRID| spherical cutoff:                                                   NO
 PW_GRID|   Bounds   1           -216     215                Points:         432
 PW_GRID|   Bounds   2           -216     215                Points:         432
 PW_GRID|   Bounds   3            -96      95                Points:         192
 PW_GRID| Volume element (a.u.^3)  0.1819E-02     Volume (a.u.^3)     65166.3335
 PW_GRID| Grid span                                                    FULLSPACE
 PW_GRID|   Distribution                         Average         Max         Min
 PW_GRID|   G-Vectors                           731261.4      731376      730944
 PW_GRID|   G-Rays                                1692.7        1693        1692
 PW_GRID|   Real Space Points                   731261.4      746496      663552

 PW_GRID| Information for grid number                                          2
 PW_GRID| Grid distributed over                                    49 processors
 PW_GRID| Real space group dimensions                                    49    1
 PW_GRID| the grid is blocked:                                                NO
 PW_GRID| Cutoff [a.u.]                                                    100.0
 PW_GRID| spherical cutoff:                                                   NO
 PW_GRID|   Bounds   1           -128     127                Points:         256
 PW_GRID|   Bounds   2           -128     127                Points:         256
 PW_GRID|   Bounds   3            -60      59                Points:         120
 PW_GRID| Volume element (a.u.^3)  0.8286E-02     Volume (a.u.^3)     65166.3335
 PW_GRID| Grid span                                                    FULLSPACE
 PW_GRID|   Distribution                         Average         Max         Min
 PW_GRID|   G-Vectors                           160496.3      162048      158208
 PW_GRID|   G-Rays                                 626.9         633         618
 PW_GRID|   Real Space Points                   160496.3      184320      153600

 PW_GRID| Information for grid number                                          3
 PW_GRID| Grid distributed over                                    49 processors
 PW_GRID| Real space group dimensions                                    49    1
 PW_GRID| the grid is blocked:                                                NO
 PW_GRID| Cutoff [a.u.]                                                     33.3
 PW_GRID| spherical cutoff:                                                   NO
 PW_GRID|   Bounds   1            -72      71                Points:         144
 PW_GRID|   Bounds   2            -72      71                Points:         144
 PW_GRID|   Bounds   3            -32      31                Points:          64
 PW_GRID| Volume element (a.u.^3)  0.4910E-01     Volume (a.u.^3)     65166.3335
 PW_GRID| Grid span                                                    FULLSPACE
 PW_GRID|   Distribution                         Average         Max         Min
 PW_GRID|   G-Vectors                            27083.8       27936       26064
 PW_GRID|   G-Rays                                 188.1         194         181
 PW_GRID|   Real Space Points                    27083.8       27648       18432

 PW_GRID| Information for grid number                                          4
 PW_GRID| Grid distributed over                                    49 processors
 PW_GRID| Real space group dimensions                                    49    1
 PW_GRID| the grid is blocked:                                                NO
 PW_GRID| Cutoff [a.u.]                                                     11.1
 PW_GRID| spherical cutoff:                                                   NO
 PW_GRID|   Bounds   1            -45      44                Points:          90
 PW_GRID|   Bounds   2            -45      44                Points:          90
 PW_GRID|   Bounds   3            -20      19                Points:          40
 PW_GRID| Volume element (a.u.^3)  0.2011         Volume (a.u.^3)     65166.3335
 PW_GRID| Grid span                                                    FULLSPACE
[...]
 -                                DBCSR STATISTICS                             -
 -                                                                             -
 -------------------------------------------------------------------------------
 COUNTER                                    TOTAL       BLAS       SMM       ACC
 flops     5 x    28 x    28              2257920     100.0%      0.0%      0.0%
 flops    13 x    28 x    28             10762752     100.0%      0.0%      0.0%
 flops     5 x    32 x    32             56033280     100.0%      0.0%      0.0%
 flops    13 x    32 x    32            267091968     100.0%      0.0%      0.0%
 flops    64 x    64 x    64            400556032     100.0%      0.0%      0.0%
 flops    64 x    64 x    92            575799296     100.0%      0.0%      0.0%
 flops    64 x    92 x    64            575799296     100.0%      0.0%      0.0%
 flops    92 x    64 x    64            575799296     100.0%      0.0%      0.0%
 flops    64 x    92 x    92            827711488     100.0%      0.0%      0.0%
 flops    92 x    64 x    92            827711488     100.0%      0.0%      0.0%
 flops    92 x    92 x    64            827711488     100.0%      0.0%      0.0%
 flops    92 x    92 x    92           1189835264     100.0%      0.0%      0.0%
 flops     5 x     5 x    64           1877529600     100.0%      0.0%      0.0%
 flops     5 x     5 x    92           2698948800     100.0%      0.0%      0.0%
 flops    64 x    64 x    96           3004170240     100.0%      0.0%      0.0%
 flops    64 x    96 x    64           3004170240     100.0%      0.0%      0.0%
 flops    96 x    64 x    64           3004170240     100.0%      0.0%      0.0%
 flops    64 x    64 x   591           3350298624     100.0%      0.0%      0.0%
 flops     5 x    28 x     5           3474777600     100.0%      0.0%      0.0%
 flops   591 x    64 x    64           4163665920     100.0%      0.0%      0.0%
 flops    64 x    92 x    96           4318494720     100.0%      0.0%      0.0%
 flops    64 x    96 x    92           4318494720     100.0%      0.0%      0.0%
 flops    92 x    64 x    96           4318494720     100.0%      0.0%      0.0%
 flops    92 x    96 x    64           4318494720     100.0%      0.0%      0.0%
 flops    96 x    64 x    92           4318494720     100.0%      0.0%      0.0%
 flops    96 x    92 x    64           4318494720     100.0%      0.0%      0.0%
 flops    64 x    92 x   591           4816054272     100.0%      0.0%      0.0%
 flops    92 x    64 x   591           4816054272     100.0%      0.0%      0.0%
 flops   591 x    64 x    92           5985269760     100.0%      0.0%      0.0%
 flops   591 x    92 x    64           5985269760     100.0%      0.0%      0.0%
 flops    92 x    92 x    96           6207836160     100.0%      0.0%      0.0%
 flops    92 x    96 x    92           6207836160     100.0%      0.0%      0.0%
 flops    96 x    92 x    92           6207836160     100.0%      0.0%      0.0%
 flops    92 x    92 x   591           6923078016     100.0%      0.0%      0.0%
 flops    13 x     5 x    64           8199659520     100.0%      0.0%      0.0%
 flops     5 x    13 x    64           8234403840     100.0%      0.0%      0.0%
 flops    64 x    64 x   594           8418263040     100.0%      0.0%      0.0%
 flops   591 x    92 x    92           8603825280     100.0%      0.0%      0.0%
 flops   594 x    64 x    64          10462003200     100.0%      0.0%      0.0%
 flops    13 x     5 x    92          11787010560     100.0%      0.0%      0.0%
 flops     5 x    13 x    92          11836955520     100.0%      0.0%      0.0%
 flops    64 x    92 x   594          12101253120     100.0%      0.0%      0.0%
 flops    92 x    64 x   594          12101253120     100.0%      0.0%      0.0%
 flops     5 x     5 x    96          14081472000     100.0%      0.0%      0.0%
 flops   594 x    64 x    92          15039129600     100.0%      0.0%      0.0%
 flops   594 x    92 x    64          15039129600     100.0%      0.0%      0.0%
 flops     5 x    28 x    13          15371516160     100.0%      0.0%      0.0%
 flops    13 x    28 x     5          15371516160     100.0%      0.0%      0.0%
 flops    92 x    92 x   594          17395551360     100.0%      0.0%      0.0%
 flops   594 x    92 x    92          21618748800     100.0%      0.0%      0.0%
 flops    96 x    96 x    64          22531276800     100.0%      0.0%      0.0%
 flops    64 x    96 x    96          22531276800     100.0%      0.0%      0.0%
 flops    96 x    64 x    96          22531276800     100.0%      0.0%      0.0%
 flops    64 x    96 x   591          25127239680     100.0%      0.0%      0.0%
 flops    96 x    64 x   591          25127239680     100.0%      0.0%      0.0%
 flops   591 x    64 x    96          31227494400     100.0%      0.0%      0.0%
 flops   591 x    96 x    64          31227494400     100.0%      0.0%      0.0%
 flops   591 x    64 x   591          31474409472     100.0%      0.0%      0.0%
 flops    96 x    96 x    92          32388710400     100.0%      0.0%      0.0%
 flops    92 x    96 x    96          32388710400     100.0%      0.0%      0.0%
 flops    96 x    92 x    96          32388710400     100.0%      0.0%      0.0%
 flops    13 x    13 x    64          35908254720     100.0%      0.0%      0.0%
 flops    92 x    96 x   591          36120407040     100.0%      0.0%      0.0%
 flops    96 x    92 x   591          36120407040     100.0%      0.0%      0.0%
 flops   591 x    92 x    96          44889523200     100.0%      0.0%      0.0%
 flops   591 x    96 x    92          44889523200     100.0%      0.0%      0.0%
 flops   591 x    92 x   591          45244463616     100.0%      0.0%      0.0%
 flops    13 x    13 x    92          51618116160     100.0%      0.0%      0.0%
 flops    13 x     5 x    96          61497446400     100.0%      0.0%      0.0%
 flops     5 x    13 x    96          61758028800     100.0%      0.0%      0.0%
 flops    64 x    96 x   594          63136972800     100.0%      0.0%      0.0%
 flops    96 x    64 x   594          63136972800     100.0%      0.0%      0.0%
 flops    13 x    28 x    13          66708480384     100.0%      0.0%      0.0%
 flops     5 x    32 x     5          75452313600     100.0%      0.0%      0.0%
 flops   594 x    96 x    64          78465024000     100.0%      0.0%      0.0%
 flops   594 x    64 x    96          78465024000     100.0%      0.0%      0.0%
 flops   594 x    64 x   591          79085445120     100.0%      0.0%      0.0%
 flops   591 x    64 x   594          79085445120     100.0%      0.0%      0.0%
 flops    92 x    96 x   594          90759398400     100.0%      0.0%      0.0%
 flops    96 x    92 x   594          90759398400     100.0%      0.0%      0.0%
 flops   594 x    96 x    92         112793472000     100.0%      0.0%      0.0%
 flops   594 x    92 x    96         112793472000     100.0%      0.0%      0.0%
 flops   594 x    92 x   591         113685327360     100.0%      0.0%      0.0%
 flops   591 x    92 x   594         113685327360     100.0%      0.0%      0.0%
 flops    96 x    96 x    96         168984576000     100.0%      0.0%      0.0%
 flops    96 x    96 x   591         188454297600     100.0%      0.0%      0.0%
 flops   594 x    64 x   594         198717235200     100.0%      0.0%      0.0%
 flops   591 x    96 x    96         234206208000     100.0%      0.0%      0.0%
 flops   591 x    96 x   591         236058071040     100.0%      0.0%      0.0%
 flops    13 x    13 x    96         269311910400     100.0%      0.0%      0.0%
 flops   594 x    92 x   594         285656025600     100.0%      0.0%      0.0%
 flops     5 x    32 x    13         333781493760     100.0%      0.0%      0.0%
 flops    13 x    32 x     5         333781493760     100.0%      0.0%      0.0%
 flops    96 x    96 x   594         473527296000     100.0%      0.0%      0.0%
 flops   594 x    96 x    96         588487680000     100.0%      0.0%      0.0%
 flops   594 x    96 x   591         593140838400     100.0%      0.0%      0.0%
 flops   591 x    96 x   594         593140838400     100.0%      0.0%      0.0%
 flops    13 x    32 x    13        1448527002624     100.0%      0.0%      0.0%
 flops   594 x    96 x   594        1490379264000     100.0%      0.0%      0.0%
 flops inhomo. stacks                           0       0.0%      0.0%      0.0%
 flops total                         9.690593E+12     100.0%      0.0%      0.0%
 flops max/rank                    211.608099E+09     100.0%      0.0%      0.0%
 matmuls inhomo. stacks                         0       0.0%      0.0%      0.0%
 matmuls total                          389689020     100.0%      0.0%      0.0%
 number of processed stacks               1209260     100.0%      0.0%      0.0%
 average stack size                                   322.3       0.0       0.0
 marketing flops                    12.858879E+12
 -------------------------------------------------------------------------------
 # multiplications                           1993
 max memory usage/rank             517.238784E+06
 # max total images/rank                        1
 # max 3D layers                                1
 # MPI messages exchanged                 1171884
 MPI messages size (bytes):
  total size                       480.570147E+09
  min size                           0.000000E+00
  max size                           2.822688E+06
  average size                     410.083375E+03
 MPI breakdown and total messages size (bytes):
             size <=      128                1680                        0
       128 < size <=     8192                   0                        0
      8192 < size <=    32768               11832                386901504
     32768 < size <=   131072              563904              37631193600
    131072 < size <=  4194304              594468             442552944384
   4194304 < size <= 16777216                   0                        0
  16777216 < size                               0                        0
 -------------------------------------------------------------------------------
 
 MEMORY| Estimated peak process memory [MiB]                                 494

 -------------------------------------------------------------------------------
 ----                             MULTIGRID INFO                            ----
 -------------------------------------------------------------------------------
 count for grid        1:         778832          cutoff [a.u.]          300.00
 count for grid        2:         517928          cutoff [a.u.]          100.00
 count for grid        3:         464620          cutoff [a.u.]           33.33
 count for grid        4:         217096          cutoff [a.u.]           11.11
 total gridlevel count  :        1978476

 -------------------------------------------------------------------------------
 -                                                                             -
 -                         MESSAGE PASSING PERFORMANCE                         -
 -                                                                             -
 -------------------------------------------------------------------------------

 ROUTINE             CALLS      AVE VOLUME [Bytes]
 MP_Group              120
 MP_Bcast             4184                 176782.
 MP_Allreduce        15281                    340.
 MP_Sync                93
 MP_Alltoall          8373                5694759.
 MP_ISendRecv        16608                 139392.
 MP_Wait            166000
 MP_comm_split          89
 MP_ISend            60305                 280704.
 MP_IRecv            60305                 278510.
 MP_Recv                95                1062912.
 MP_Memory           80904
 -------------------------------------------------------------------------------


 -------------------------------------------------------------------------------
 -                                                                             -
 -                           R E F E R E N C E S                               -
 -                                                                             -
 -------------------------------------------------------------------------------
 
 CP2K version 5.1, the CP2K developers group (2017).
 CP2K is freely available from https://www.cp2k.org/ .

 Schuett, Ole; Messmer, Peter; Hutter, Juerg; VandeVondele, Joost. 
 Electronic Structure Calculations on Graphics Processing Units, John Wiley & Sons, Ltd, 173-190 (2016). 
 GPU-Accelerated Sparse Matrix-Matrix Multiplication for Linear Scaling Density Functional Theory.
 http://dx.doi.org/10.1002/9781118670712.ch8


 Borstnik, U; VandeVondele, J; Weber, V; Hutter, J. 
 PARALLEL COMPUTING, 40 (5-6), 47-58 (2014). 
 Sparse matrix multiplication: The distributed block-compressed sparse
 row library.
 http://dx.doi.org/10.1016/j.parco.2014.03.012


 Hutter, J; Iannuzzi, M; Schiffmann, F; VandeVondele, J. 
 WILEY INTERDISCIPLINARY REVIEWS-COMPUTATIONAL MOLECULAR SCIENCE, 4 (1), 15-25 (2014). 
 CP2K: atomistic simulations of condensed matter systems.
 http://dx.doi.org/10.1002/wcms.1159


 Grimme, S; Ehrlich, S; Goerigk, L. 
 JOURNAL OF COMPUTATIONAL CHEMISTRY, 32, 1456 (2011). 
 Effect of the damping function in dispersion corrected density functional theory.
 http://dx.doi.org/10.1002/jcc.21759


 Grimme, S; Antony, J; Ehrlich, S; Krieg, H. 
 JOURNAL OF CHEMICAL PHYSICS, 132 (15), 154104 (2010). 
 A consistent and accurate ab initio parametrization of density
 functional dispersion correction (DFT-D) for the 94 elements H-Pu.
 http://dx.doi.org/10.1063/1.3382344


 VandeVondele, J; Hutter, J. 
 JOURNAL OF CHEMICAL PHYSICS, 127 (11), 114105 (2007). 
 Gaussian basis sets for accurate calculations on molecular systems in
 gas and condensed phases.
 http://dx.doi.org/10.1063/1.2770708


 Krack, M. 
 THEORETICAL CHEMISTRY ACCOUNTS, 114 (1-3), 145-152 (2005). 
 Pseudopotentials for H to Kr optimized for gradient-corrected
 exchange-correlation functionals.
 http://dx.doi.org/10.1007/s00214-005-0655-y


 VandeVondele, J; Krack, M; Mohamed, F; Parrinello, M; Chassaing, T;
 Hutter, J. COMPUTER PHYSICS COMMUNICATIONS, 167 (2), 103-128 (2005). 
 QUICKSTEP: Fast and accurate density functional calculations using a
 mixed Gaussian and plane waves approach.
 http://dx.doi.org/10.1016/j.cpc.2004.12.014


 Frigo, M; Johnson, SG. 
 PROCEEDINGS OF THE IEEE, 93 (2), 216-231 (2005). 
 The design and implementation of FFTW3.
 http://dx.doi.org/10.1109/JPROC.2004.840301


 VandeVondele, J; Hutter, J. 
 JOURNAL OF CHEMICAL PHYSICS, 118 (10), 4365-4369 (2003). 
 An efficient orbital transformation method for electronic structure
 calculations.
 http://dx.doi.org/10.1063/1.1543154


 Hartwigsen, C; Goedecker, S; Hutter, J. 
 PHYSICAL REVIEW B, 58 (7), 3641-3662 (1998). 
 Relativistic separable dual-space Gaussian pseudopotentials from H to Rn.
 http://dx.doi.org/10.1103/PhysRevB.58.3641


 Lippert, G; Hutter, J; Parrinello, M. 
 MOLECULAR PHYSICS, 92 (3), 477-487 (1997). 
 A hybrid Gaussian and plane wave density functional scheme.
 http://dx.doi.org/10.1080/002689797170220


 Perdew, JP; Burke, K; Ernzerhof, M. 
 PHYSICAL REVIEW LETTERS, 77 (18), 3865-3868 (1996). 
 Generalized gradient approximation made simple.
 http://dx.doi.org/10.1103/PhysRevLett.77.3865


 Goedecker, S; Teter, M; Hutter, J. 
 PHYSICAL REVIEW B, 54 (3), 1703-1710 (1996). 
 Separable dual-space Gaussian pseudopotentials.
 http://dx.doi.org/10.1103/PhysRevB.54.1703


 -------------------------------------------------------------------------------
 -                                                                             -
 -                                T I M I N G                                  -
 -                                                                             -
 -------------------------------------------------------------------------------
 SUBROUTINE                       CALLS  ASD         SELF TIME        TOTAL TIME
                                MAXIMUM       AVERAGE  MAXIMUM  AVERAGE  MAXIMUM
 CP2K                                 1  1.0    0.074    0.090  353.730  353.737
 qs_energies                          1  2.0    0.010    0.018  352.977  352.983
 scf_env_do_scf                       1  3.0    0.001    0.008  350.627  350.627
 scf_env_do_scf_inner_loop           86  4.0    0.004    0.035  341.854  341.868
 qs_ks_update_qs_env                 88  5.0    0.001    0.003  202.766  203.022
 rebuild_ks_matrix                   86  6.0    0.000    0.000  202.708  202.966
 qs_ks_build_kohn_sham_matrix        86  7.0    0.016    0.023  202.708  202.965
 qs_rho_update_rho                   87  5.0    0.000    0.001  122.738  122.771
 calculate_rho_elec                  87  6.0   88.619   94.311  122.738  122.771
 sum_up_and_integrate                86  8.0    0.485    0.529  107.218  107.224
 integrate_v_rspace                  86  9.0   80.601   86.511  106.733  106.801
 pw_transfer                       1640  9.6    0.116    0.142   95.770  102.896
 fft_wrap_pw1pw2                   1468 10.7    0.013    0.016   94.843  101.968
 fft_wrap_pw1pw2_300                949 11.8    5.471    5.908   90.989   98.010
 fft3d_ps                          1468 12.7   40.816   51.112   77.741   86.329
 qs_vxc_create                       86  8.0    0.002    0.006   80.297   80.786
 xc_vxc_pw_create                    86  9.0    0.723    0.769   80.295   80.784
 xc_rho_set_and_dset_create          86 10.0    0.289    0.318   41.943   46.068
 density_rs2pw                       87  7.0    0.005    0.005   31.133   36.833
 mp_alltoall_z22v                  1468 14.7   24.742   29.774   24.742   29.774
 rs_pw_transfer                     693  9.5    0.007    0.008   22.694   28.217
 qs_scf_new_mos                      86  5.0    0.000    0.001   22.392   22.807
 qs_scf_loop_do_ot                   86  6.0    0.001    0.005   22.391   22.806
 x_to_yz                            775 14.2    7.812    8.403   20.380   21.789
 ot_scf_mini                         86  7.0    0.005    0.008   21.241   21.637
 dbcsr_multiply_generic            1993 10.2    0.118    0.130   21.136   21.396
 yz_to_x                            693 13.1    4.343    4.695   16.517   20.329
 potential_pw2rs                     86 10.0    0.029    0.032   19.619   19.692
 multiply_cannon                   1993 11.2    0.258    0.289   15.486   16.327
 xc_functional_eval                  86 11.0    0.001    0.001   12.118   16.089
 pbe_lda_eval                        86 12.0   12.118   16.088   12.118   16.088
 mp_waitany                        4509 11.5    9.473   15.338    9.473   15.338
 rs_pw_transfer_RS2PW_300            88  9.0    2.523    2.955    8.750   14.388
 rs_distribute_matrix               173  8.5    0.213    0.416    6.830   11.946
 mp_alltoall_d11v                  1443 12.3    6.651   11.866    6.651   11.866
 ot_mini                             86  8.0    0.003    0.005   11.278   11.688
 multiply_cannon_multrec          13951 12.2    9.097   10.413    9.108   10.426
 init_scf_loop                        2  4.0    0.001    0.007    8.754    8.758
 mp_waitall_1                    161491 13.4    6.648    8.607    6.648    8.607
 -------------------------------------------------------------------------------

 The number of warnings for this run is : 1
 
 -------------------------------------------------------------------------------
  **** **** ******  **  PROGRAM ENDED AT                 2018-10-11 09:51:01.138
 ***** ** ***  *** **   PROGRAM RAN ON                                      g013
 **    ****   ******    PROGRAM RAN BY                                    ongari
 ***** **    ** ** **   PROGRAM PROCESS ID                                 15060
  **** **  *******  **  PROGRAM STOPPED IN /scratch/ongari/proj44_studycases/CEL
                                           LOPT/1_ENERGY
